                         Program Version 5.0.3 -  RELEASE  -
|  1> ! UKS wB97X-V def2-TZVP TIGHTSCF Opt CPCM PAL8
|  2> %maxcore 5000
|  3> %cpcm
|  4> smd true
|  5> SMDsolvent "DMSO"
|  6> end
|  7> * xyz 0 1
|  8>  C -0.07425707479814 6.45007760366319 3.54636897867849
|  9>  S 1.48979584793712 6.08048225687873 2.75598260255209
| 10>  C 1.14936654141856 4.63662227087222 1.83369205968326
| 11>  C -0.09136557109480 4.00305286554088 1.79338352444578
| 12>  C -0.25826928718407 2.84269542505768 1.05936282240646
| 13>  C 0.80050967676942 2.30271389692801 0.33923873907232
| 14>  C 2.02875697338567 2.96040825022008 0.34201900047512
| 15>  C 2.20764771123846 4.10330343094754 1.09121055149825
| 16>  C 0.66254428710301 1.09941809961861 -0.50690159852297
| 17>  O 0.00000000000000 0.00000000000000 0.00000000000000
| 18>  O 1.06713866538631 0.98717129960580 -1.62357736506780
| 19>  O 0.00000000000000 0.00000000000000 1.41527284498687
| 20>  C -1.27388770944479 0.00000000000000 1.91590645535523
| 21>  C -1.22211457253867 0.06642777988277 3.38831477989974
| 22>  O -2.25742922897412 -0.02585779042736 1.23875652957256
| 23>  C -2.41543940252313 -0.12289611375011 4.08595252694906
| 24>  C -2.44195923478874 -0.03437680070658 5.45887710053507
| 25>  C -1.27275068522395 0.25496212808386 6.17298493884884
| 26>  C -0.08177795586127 0.45060655108151 5.47518008098465
| 27>  C -0.05890441770979 0.35440376081578 4.09544628781756
| 28>  S -1.42666733932306 0.34986111841343 7.90788531117200
| 29>  C 0.24316058065577 0.68495422113854 8.46194522255982
| 30>  H 0.10416325535368 7.34607684664392 4.14087383255362
| 31>  H -0.38882275224257 5.64387294862163 4.21002028523424
| 32>  H -0.85323854703301 6.66443357654391 2.81385647784552
| 33>  H -0.93700004363157 4.40513362395569 2.33421606140266
| 34>  H -1.23507439683237 2.37497021944690 1.02749021968162
| 35>  H 2.84544686618639 2.55882587909200 -0.24576673820719
| 36>  H 3.17295340310622 4.59670965109571 1.10248346369500
| 37>  H -3.31769085302541 -0.33900022625314 3.52707230389961
| 38>  H -3.37188538809726 -0.18808364875198 5.99464715790180
| 39>  H 0.83479761044422 0.68252071425859 5.99988733430662
| 40>  H 0.87046926144621 0.51883617942438 3.56602510045047
| 41>  H 0.18454114424639 0.73729393679500 9.54909076814075
| 42>  H 0.60864534290486 1.64029462399245 8.08374213903351
| 43>  H 0.92507514742305 -0.11949528816653 8.18458994466104
| 44> *
| 45>
| 46>                          ****END OF INPUT****
 Total Charge           Charge          ....    0
 Multiplicity           Mult            ....    1
 Number of Electrons    NEL             ....  174
FINAL SINGLE POINT ENERGY     -1715.359897830360
FINAL SINGLE POINT ENERGY     -1715.360153823990
FINAL SINGLE POINT ENERGY     -1715.360232082844
FINAL SINGLE POINT ENERGY     -1715.360913892154
FINAL SINGLE POINT ENERGY     -1715.360857505876
FINAL SINGLE POINT ENERGY     -1715.360971527190
FINAL SINGLE POINT ENERGY     -1715.361007955187
FINAL SINGLE POINT ENERGY     -1715.361054021293
FINAL SINGLE POINT ENERGY     -1715.361070695096
FINAL SINGLE POINT ENERGY     -1715.361092384745
FINAL SINGLE POINT ENERGY     -1715.361101656225
FINAL SINGLE POINT ENERGY     -1715.361111447299
FINAL SINGLE POINT ENERGY     -1715.361108779809
FINAL SINGLE POINT ENERGY     -1715.361113613751
                    ***********************HURRAY********************

CARTESIAN COORDINATES (ANGSTROEM)
---------------------------------
  C     -0.003386    6.136491    3.926580
  S      1.555672    5.781849    3.108920
  C      1.165149    4.441355    2.038470
  C     -0.122552    3.928279    1.874124
  C     -0.338054    2.849203    1.028224
  C      0.721601    2.283354    0.326451
  C      2.003922    2.813756    0.461708
  C      2.225664    3.876438    1.320103
  C      0.517644    1.152898   -0.617821
  O     -0.056645   -0.013954   -0.144539
  O      0.798208    1.146921   -1.781503
  O     -0.024413   -0.069782    1.268431
  C     -1.297343   -0.076011    1.799518
  C     -1.219134    0.044081    3.273397
  O     -2.287800   -0.166223    1.133137
  C     -2.339966   -0.324223    4.022819
  C     -2.332579   -0.186928    5.396333
  C     -1.207236    0.336074    6.050276
  C     -0.089700    0.707334    5.300938
  C     -0.097138    0.558826    3.920974
  S     -1.310898    0.484417    7.796266
  C      0.261991    1.215419    8.259104
  H      0.212791    6.939248    4.635143
  H     -0.369846    5.269248    4.479882
  H     -0.759840    6.486965    3.222001
  H     -0.967046    4.355307    2.401655
  H     -1.348172    2.467807    0.907074
  H      2.832940    2.381477   -0.090343
  H      3.231893    4.269515    1.436255
  H     -3.216643   -0.720554    3.520966
  H     -3.206635   -0.480824    5.970807
  H      0.792390    1.118137    5.777198
  H      0.776011    0.866217    3.355242
  H      0.220409    1.334854    9.344160
  H      0.395675    2.198209    7.803122
  H      1.099544    0.561241    8.010456

 Multiplicity           Mult            ....    1
 Number of Electrons    NEL             ....  174
 Basis Dimension        Dim             ....  778

ORBITAL ENERGIES
----------------
                 SPIN UP ORBITALS
  NO   OCC          E(Eh)            E(eV)
   0   1.0000     -88.867957     -2418.2200
   1   1.0000     -88.866036     -2418.1678
   2   1.0000     -19.329416      -525.9802
   3   1.0000     -19.328925      -525.9668
   4   1.0000     -19.225444      -523.1509
   5   1.0000     -19.221403      -523.0410
   6   1.0000     -10.425637      -283.6960
   7   1.0000     -10.421917      -283.5948
   8   1.0000     -10.323434      -280.9149
   9   1.0000     -10.320161      -280.8259
  10   1.0000     -10.299364      -280.2599
  11   1.0000     -10.297126      -280.1990
  12   1.0000     -10.292736      -280.0796
  13   1.0000     -10.292077      -280.0617
  14   1.0000     -10.290654      -280.0229
  15   1.0000     -10.290488      -280.0184
  16   1.0000     -10.288918      -279.9757
  17   1.0000     -10.288277      -279.9582
  18   1.0000     -10.283327      -279.8236
  19   1.0000     -10.283226      -279.8208
  20   1.0000     -10.282969      -279.8138
  21   1.0000     -10.282417      -279.7988
  22   1.0000      -8.046438      -218.9547
  23   1.0000      -8.044489      -218.9017
  24   1.0000      -6.002592      -163.3388
  25   1.0000      -6.000678      -163.2867
  26   1.0000      -5.998359      -163.2236
  27   1.0000      -5.996474      -163.1724
  28   1.0000      -5.993784      -163.0991
  29   1.0000      -5.991746      -163.0437
  30   1.0000      -1.339086       -36.4384
  31   1.0000      -1.227325       -33.3972
  32   1.0000      -1.194894       -32.5147
  33   1.0000      -1.094880       -29.7932
  34   1.0000      -1.020768       -27.7765
  35   1.0000      -1.019269       -27.7357
  36   1.0000      -0.951807       -25.9000
  37   1.0000      -0.949833       -25.8463
  38   1.0000      -0.898098       -24.4385
  39   1.0000      -0.895870       -24.3779
  40   1.0000      -0.888791       -24.1852
  41   1.0000      -0.886278       -24.1168
  42   1.0000      -0.814875       -22.1739
  43   1.0000      -0.800230       -21.7754
  44   1.0000      -0.765504       -20.8304
  45   1.0000      -0.750357       -20.4183
  46   1.0000      -0.748308       -20.3625
  47   1.0000      -0.730748       -19.8847
  48   1.0000      -0.708971       -19.2921
  49   1.0000      -0.693868       -18.8811
  50   1.0000      -0.673161       -18.3176
  51   1.0000      -0.663939       -18.0667
  52   1.0000      -0.629653       -17.1337
  53   1.0000      -0.609259       -16.5788
  54   1.0000      -0.598587       -16.2884
  55   1.0000      -0.595698       -16.2098
  56   1.0000      -0.581975       -15.8363
  57   1.0000      -0.578355       -15.7378
  58   1.0000      -0.573869       -15.6158
  59   1.0000      -0.564805       -15.3691
  60   1.0000      -0.562020       -15.2934
  61   1.0000      -0.546832       -14.8800
  62   1.0000      -0.545232       -14.8365
  63   1.0000      -0.541793       -14.7429
  64   1.0000      -0.540872       -14.7179
  65   1.0000      -0.540378       -14.7044
  66   1.0000      -0.527986       -14.3672
  67   1.0000      -0.512655       -13.9501
  68   1.0000      -0.507190       -13.8013
  69   1.0000      -0.504932       -13.7399
  70   1.0000      -0.500515       -13.6197
  71   1.0000      -0.476786       -12.9740
  72   1.0000      -0.473023       -12.8716
  73   1.0000      -0.461731       -12.5643
  74   1.0000      -0.459133       -12.4936
  75   1.0000      -0.456942       -12.4340
  76   1.0000      -0.433580       -11.7983
  77   1.0000      -0.426104       -11.5949
  78   1.0000      -0.424620       -11.5545
  79   1.0000      -0.414785       -11.2869
  80   1.0000      -0.410902       -11.1812
  81   1.0000      -0.400759       -10.9052
  82   1.0000      -0.394623       -10.7382
  83   1.0000      -0.367075        -9.9886
  84   1.0000      -0.360903        -9.8207
  85   1.0000      -0.309691        -8.4271
  86   1.0000      -0.307917        -8.3788
  87   0.0000       0.013944         0.3794
  88   0.0000       0.032985         0.8976
  89   0.0000       0.055152         1.5008
  90   0.0000       0.058322         1.5870
  91   0.0000       0.087893         2.3917

                 SPIN DOWN ORBITALS
  NO   OCC          E(Eh)            E(eV)
   0   1.0000     -88.867957     -2418.2200
   1   1.0000     -88.866036     -2418.1678
   2   1.0000     -19.329416      -525.9802
   3   1.0000     -19.328925      -525.9668
   4   1.0000     -19.225444      -523.1509
   5   1.0000     -19.221403      -523.0410
   6   1.0000     -10.425637      -283.6960
   7   1.0000     -10.421917      -283.5948
   8   1.0000     -10.323434      -280.9149
   9   1.0000     -10.320161      -280.8259
  10   1.0000     -10.299364      -280.2599
  11   1.0000     -10.297126      -280.1990
  12   1.0000     -10.292736      -280.0796
  13   1.0000     -10.292077      -280.0617
  14   1.0000     -10.290654      -280.0229
  15   1.0000     -10.290488      -280.0184
  16   1.0000     -10.288918      -279.9757
  17   1.0000     -10.288277      -279.9582
  18   1.0000     -10.283327      -279.8236
  19   1.0000     -10.283226      -279.8208
  20   1.0000     -10.282969      -279.8138
  21   1.0000     -10.282417      -279.7988
  22   1.0000      -8.046438      -218.9547
  23   1.0000      -8.044489      -218.9017
  24   1.0000      -6.002592      -163.3388
  25   1.0000      -6.000678      -163.2867
  26   1.0000      -5.998359      -163.2236
  27   1.0000      -5.996474      -163.1724
  28   1.0000      -5.993784      -163.0991
  29   1.0000      -5.991746      -163.0437
  30   1.0000      -1.339086       -36.4384
  31   1.0000      -1.227325       -33.3972
  32   1.0000      -1.194894       -32.5147
  33   1.0000      -1.094880       -29.7932
  34   1.0000      -1.020768       -27.7765
  35   1.0000      -1.019269       -27.7357
  36   1.0000      -0.951807       -25.9000
  37   1.0000      -0.949833       -25.8463
  38   1.0000      -0.898098       -24.4385
  39   1.0000      -0.895870       -24.3779
  40   1.0000      -0.888791       -24.1852
  41   1.0000      -0.886278       -24.1168
  42   1.0000      -0.814875       -22.1739
  43   1.0000      -0.800230       -21.7754
  44   1.0000      -0.765504       -20.8304
  45   1.0000      -0.750357       -20.4183
  46   1.0000      -0.748308       -20.3625
  47   1.0000      -0.730748       -19.8847
  48   1.0000      -0.708971       -19.2921
  49   1.0000      -0.693868       -18.8811
  50   1.0000      -0.673161       -18.3176
  51   1.0000      -0.663939       -18.0667
  52   1.0000      -0.629653       -17.1337
  53   1.0000      -0.609259       -16.5788
  54   1.0000      -0.598587       -16.2884
  55   1.0000      -0.595698       -16.2098
  56   1.0000      -0.581975       -15.8363
  57   1.0000      -0.578355       -15.7378
  58   1.0000      -0.573869       -15.6158
  59   1.0000      -0.564805       -15.3691
  60   1.0000      -0.562020       -15.2934
  61   1.0000      -0.546832       -14.8800
  62   1.0000      -0.545232       -14.8365
  63   1.0000      -0.541793       -14.7429
  64   1.0000      -0.540872       -14.7179
  65   1.0000      -0.540378       -14.7044
  66   1.0000      -0.527986       -14.3672
  67   1.0000      -0.512655       -13.9501
  68   1.0000      -0.507190       -13.8013
  69   1.0000      -0.504932       -13.7399
  70   1.0000      -0.500515       -13.6197
  71   1.0000      -0.476786       -12.9740
  72   1.0000      -0.473023       -12.8716
  73   1.0000      -0.461731       -12.5643
  74   1.0000      -0.459133       -12.4936
  75   1.0000      -0.456942       -12.4340
  76   1.0000      -0.433580       -11.7983
  77   1.0000      -0.426104       -11.5949
  78   1.0000      -0.424620       -11.5545
  79   1.0000      -0.414785       -11.2869
  80   1.0000      -0.410902       -11.1812
  81   1.0000      -0.400759       -10.9052
  82   1.0000      -0.394623       -10.7382
  83   1.0000      -0.367075        -9.9886
  84   1.0000      -0.360903        -9.8207
  85   1.0000      -0.309691        -8.4271
  86   1.0000      -0.307917        -8.3788
  87   0.0000       0.013944         0.3794
  88   0.0000       0.032985         0.8976
  89   0.0000       0.055152         1.5008
  90   0.0000       0.058322         1.5870
  91   0.0000       0.087893         2.3917

MULLIKEN ATOMIC CHARGES AND SPIN POPULATIONS
--------------------------------------------
   0 C :   -0.411217    0.000000
   1 S :   -0.040613    0.000000
   2 C :    0.118539    0.000000
   3 C :   -0.234151    0.000000
   4 C :   -0.225473    0.000000
   5 C :    0.112140    0.000000
   6 C :   -0.247820    0.000000
   7 C :   -0.190386    0.000000
   8 C :    0.266206    0.000000
   9 O :   -0.078251    0.000000
  10 O :   -0.287132    0.000000
  11 O :   -0.109548    0.000000
  12 C :    0.268858    0.000000
  13 C :    0.118508    0.000000
  14 O :   -0.294738    0.000000
  15 C :   -0.239161    0.000000
  16 C :   -0.185434    0.000000
  17 C :    0.132771    0.000000
  18 C :   -0.245114    0.000000
  19 C :   -0.238294    0.000000
  20 S :   -0.032629    0.000000
  21 C :   -0.411522    0.000000
  22 H :    0.183304    0.000000
  23 H :    0.166486    0.000000
  24 H :    0.166713    0.000000
  25 H :    0.182410    0.000000
  26 H :    0.179404    0.000000
  27 H :    0.178849    0.000000
  28 H :    0.169925    0.000000
  29 H :    0.173998    0.000000
  30 H :    0.169452    0.000000
  31 H :    0.181545    0.000000
  32 H :    0.182858    0.000000
  33 H :    0.184384    0.000000
  34 H :    0.167541    0.000000
  35 H :    0.167593    0.000000
Sum of atomic charges         :   -0.0000000

LOEWDIN ATOMIC CHARGES AND SPIN POPULATIONS
-------------------------------------------
   0 C :   -0.499896    0.000000
   1 S :    0.552961    0.000000
   2 C :   -0.363637    0.000000
   3 C :   -0.137962    0.000000
   4 C :   -0.091265    0.000000
   5 C :   -0.152282    0.000000
   6 C :   -0.086945    0.000000
   7 C :   -0.141085    0.000000
   8 C :   -0.421636    0.000000
   9 O :    0.206978    0.000000
  10 O :    0.134754    0.000000
  11 O :    0.203074    0.000000
  12 C :   -0.447080    0.000000
  13 C :   -0.149378    0.000000
  14 O :    0.123164    0.000000
  15 C :   -0.077916    0.000000
  16 C :   -0.142180    0.000000
  17 C :   -0.358565    0.000000
  18 C :   -0.139787    0.000000
  19 C :   -0.084924    0.000000
  20 S :    0.561987    0.000000
  21 C :   -0.498610    0.000000
  22 H :    0.124920    0.000000
  23 H :    0.116823    0.000000
  24 H :    0.116042    0.000000
  25 H :    0.160867    0.000000
  26 H :    0.164459    0.000000
  27 H :    0.165289    0.000000
  28 H :    0.157247    0.000000
  29 H :    0.164374    0.000000
  30 H :    0.157328    0.000000
  31 H :    0.160220    0.000000
  32 H :    0.163109    0.000000
  33 H :    0.125479    0.000000
  34 H :    0.117192    0.000000
  35 H :    0.116882    0.000000

  Mayer bond orders larger than 0.100000
B(  0-C ,  1-S ) :   1.0635 B(  0-C , 22-H ) :   0.9470 B(  0-C , 23-H ) :   0.9573
B(  0-C , 24-H ) :   0.9562 B(  1-S ,  2-C ) :   1.2004 B(  2-C ,  3-C ) :   1.2975
B(  2-C ,  7-C ) :   1.2957 B(  3-C ,  4-C ) :   1.4509 B(  3-C , 25-H ) :   0.9670
B(  4-C ,  5-C ) :   1.3232 B(  4-C , 26-H ) :   0.9393 B(  5-C ,  6-C ) :   1.3401
B(  5-C ,  8-C ) :   0.9313 B(  6-C ,  7-C ) :   1.4820 B(  6-C , 27-H ) :   0.9746
B(  7-C , 28-H ) :   0.9730 B(  8-C ,  9-O ) :   1.1211 B(  8-C , 10-O ) :   2.2016
B(  9-O , 11-O ) :   0.8286 B( 11-O , 12-C ) :   1.1150 B( 12-C , 13-C ) :   0.9579
B( 12-C , 14-O ) :   2.1443 B( 13-C , 15-C ) :   1.3043 B( 13-C , 19-C ) :   1.3302
B( 15-C , 16-C ) :   1.5031 B( 15-C , 29-H ) :   0.9707 B( 16-C , 17-C ) :   1.2756
B( 16-C , 30-H ) :   0.9752 B( 17-C , 18-C ) :   1.3051 B( 17-C , 20-S ) :   1.2140
B( 18-C , 19-C ) :   1.4624 B( 18-C , 31-H ) :   0.9630 B( 19-C , 32-H ) :   0.9585
B( 20-S , 21-C ) :   1.0627 B( 21-C , 33-H ) :   0.9463 B( 21-C , 34-H ) :   0.9569
B( 21-C , 35-H ) :   0.9565

FINAL SINGLE POINT ENERGY     -1715.361115555055

DIPOLE MOMENT
-------------
                                X             Y             Z
Electronic contribution:     -0.84608      -9.04819     -13.94863
Nuclear contribution   :      1.38798      10.62717      17.44262
                        -----------------------------------------
Total Dipole Moment    :      0.54190       1.57898       3.49399
                        -----------------------------------------
Magnitude (a.u.)       :      3.87232
Magnitude (Debye)      :      9.84264

Rotational constants in cm-1:     0.008958     0.005614     0.003799
Rotational constants in MHz :   268.561500   168.296519   113.880680

                             ****ORCA TERMINATED NORMALLY****
TOTAL RUN TIME: 0 days 2 hours 8 minutes 51 seconds 970 msec
