                         Program Version 5.0.3 -  RELEASE  -
|  1> ! UKS wB97X-V def2-TZVP TIGHTSCF Opt PAL8
|  2> %maxcore 5000
|  3> * xyz 0 2
|  4>  C -0.07425707479814 6.45007760366319 3.54636897867849
|  5>  S 1.48979584793712 6.08048225687873 2.75598260255209
|  6>  C 1.14936654141856 4.63662227087222 1.83369205968326
|  7>  C -0.09136557109480 4.00305286554088 1.79338352444578
|  8>  C -0.25826928718407 2.84269542505768 1.05936282240646
|  9>  C 0.80050967676942 2.30271389692801 0.33923873907232
| 10>  C 2.02875697338567 2.96040825022008 0.34201900047512
| 11>  C 2.20764771123846 4.10330343094754 1.09121055149825
| 12>  C 0.66254428710301 1.09941809961861 -0.50690159852297
| 13>  O 0.00000000000000 0.00000000000000 0.00000000000000
| 14>  O 1.06713866538631 0.98717129960580 -1.62357736506780
| 15>  H 0.10416325535368 7.34607684664392 4.14087383255362
| 16>  H -0.38882275224257 5.64387294862163 4.21002028523424
| 17>  H -0.85323854703301 6.66443357654391 2.81385647784552
| 18>  H -0.93700004363157 4.40513362395569 2.33421606140266
| 19>  H -1.23507439683237 2.37497021944690 1.02749021968162
| 20>  H 2.84544686618639 2.55882587909200 -0.24576673820719
| 21>  H 3.17295340310622 4.59670965109571 1.10248346369500
| 22> *
| 23>
| 24>                          ****END OF INPUT****
 Total Charge           Charge          ....    0
 Multiplicity           Mult            ....    2
 Number of Electrons    NEL             ....   87
FINAL SINGLE POINT ENERGY      -857.631318596427
FINAL SINGLE POINT ENERGY      -857.635088990768
FINAL SINGLE POINT ENERGY      -857.635982339316
FINAL SINGLE POINT ENERGY      -857.637371405099
FINAL SINGLE POINT ENERGY      -857.638040952703
FINAL SINGLE POINT ENERGY      -857.639141934964
FINAL SINGLE POINT ENERGY      -857.639872470459
FINAL SINGLE POINT ENERGY      -857.640225827304
FINAL SINGLE POINT ENERGY      -857.640429373988
FINAL SINGLE POINT ENERGY      -857.640465608320
FINAL SINGLE POINT ENERGY      -857.640446498102
FINAL SINGLE POINT ENERGY      -857.640441335964
FINAL SINGLE POINT ENERGY      -857.640451206230
FINAL SINGLE POINT ENERGY      -857.640449399040
                    ***********************HURRAY********************

CARTESIAN COORDINATES (ANGSTROEM)
---------------------------------
  C     -0.059432    6.434632    3.587177
  S      1.457006    6.144155    2.671357
  C      1.126691    4.667215    1.785530
  C     -0.096139    3.993327    1.803995
  C     -0.255180    2.826959    1.070235
  C      0.799192    2.324419    0.317006
  C      2.022082    2.996514    0.290629
  C      2.184478    4.157673    1.018381
  C      0.630327    1.077569   -0.441678
  O     -0.426938    0.402364   -0.499781
  O      1.526877    0.523165   -1.125277
  H      0.121329    7.337213    4.173136
  H     -0.278487    5.610833    4.269123
  H     -0.905750    6.613919    2.921566
  H     -0.928539    4.368258    2.386382
  H     -1.203236    2.297725    1.082644
  H      2.840612    2.598342   -0.301077
  H      3.135402    4.681686    1.004603

 Multiplicity           Mult            ....    2
 Number of Electrons    NEL             ....   87
 Basis Dimension        Dim             ....  389

ORBITAL ENERGIES
----------------
                 SPIN UP ORBITALS
  NO   OCC          E(Eh)            E(eV)
   0   1.0000     -88.882985     -2418.6290
   1   1.0000     -19.266242      -524.2611
   2   1.0000     -19.265240      -524.2338
   3   1.0000     -10.418674      -283.5065
   4   1.0000     -10.338263      -281.3184
   5   1.0000     -10.316201      -280.7181
   6   1.0000     -10.307571      -280.4833
   7   1.0000     -10.306061      -280.4422
   8   1.0000     -10.304747      -280.4064
   9   1.0000     -10.300239      -280.2838
  10   1.0000     -10.298978      -280.2494
  11   1.0000      -8.061464      -219.3636
  12   1.0000      -6.017733      -163.7508
  13   1.0000      -6.013463      -163.6347
  14   1.0000      -6.008538      -163.5006
  15   1.0000      -1.271360       -34.5955
  16   1.0000      -1.145642       -31.1745
  17   1.0000      -1.035062       -28.1655
  18   1.0000      -0.967650       -26.3311
  19   1.0000      -0.912652       -24.8345
  20   1.0000      -0.904683       -24.6177
  21   1.0000      -0.819629       -22.3032
  22   1.0000      -0.764223       -20.7956
  23   1.0000      -0.744889       -20.2695
  24   1.0000      -0.702886       -19.1265
  25   1.0000      -0.661042       -17.9879
  26   1.0000      -0.618056       -16.8181
  27   1.0000      -0.604868       -16.4593
  28   1.0000      -0.595494       -16.2042
  29   1.0000      -0.587512       -15.9870
  30   1.0000      -0.578236       -15.7346
  31   1.0000      -0.567313       -15.4374
  32   1.0000      -0.562407       -15.3039
  33   1.0000      -0.541192       -14.7266
  34   1.0000      -0.517564       -14.0836
  35   1.0000      -0.499497       -13.5920
  36   1.0000      -0.476698       -12.9716
  37   1.0000      -0.461622       -12.5614
  38   1.0000      -0.445768       -12.1300
  39   1.0000      -0.440697       -11.9920
  40   1.0000      -0.438228       -11.9248
  41   1.0000      -0.417851       -11.3703
  42   1.0000      -0.378418       -10.2973
  43   1.0000      -0.323559        -8.8045
  44   0.0000       0.006181         0.1682
  45   0.0000       0.043142         1.1739
  46   0.0000       0.088316         2.4032
  47   0.0000       0.115725         3.1490
  48   0.0000       0.129053         3.5117

                 SPIN DOWN ORBITALS
  NO   OCC          E(Eh)            E(eV)
   0   1.0000     -88.882991     -2418.6292
   1   1.0000     -19.253813      -523.9229
   2   1.0000     -19.252980      -523.9002
   3   1.0000     -10.419546      -283.5303
   4   1.0000     -10.338315      -281.3199
   5   1.0000     -10.316200      -280.7181
   6   1.0000     -10.307546      -280.4826
   7   1.0000     -10.306033      -280.4414
   8   1.0000     -10.304815      -280.4083
   9   1.0000     -10.300186      -280.2823
  10   1.0000     -10.298925      -280.2480
  11   1.0000      -8.061470      -219.3638
  12   1.0000      -6.017737      -163.7509
  13   1.0000      -6.013466      -163.6347
  14   1.0000      -6.008560      -163.5012
  15   1.0000      -1.244410       -33.8621
  16   1.0000      -1.108864       -30.1737
  17   1.0000      -1.034780       -28.1578
  18   1.0000      -0.967157       -26.3177
  19   1.0000      -0.912351       -24.8263
  20   1.0000      -0.903806       -24.5938
  21   1.0000      -0.818344       -22.2683
  22   1.0000      -0.763169       -20.7669
  23   1.0000      -0.743034       -20.2190
  24   1.0000      -0.700344       -19.0573
  25   1.0000      -0.631386       -17.1809
  26   1.0000      -0.612642       -16.6708
  27   1.0000      -0.590965       -16.0810
  28   1.0000      -0.588659       -16.0182
  29   1.0000      -0.584820       -15.9138
  30   1.0000      -0.567228       -15.4351
  31   1.0000      -0.566437       -15.4135
  32   1.0000      -0.560320       -15.2471
  33   1.0000      -0.534063       -14.5326
  34   1.0000      -0.516535       -14.0556
  35   1.0000      -0.493857       -13.4385
  36   1.0000      -0.474571       -12.9137
  37   1.0000      -0.441815       -12.0224
  38   1.0000      -0.419793       -11.4232
  39   1.0000      -0.417080       -11.3493
  40   1.0000      -0.398862       -10.8536
  41   1.0000      -0.378307       -10.2943
  42   1.0000      -0.323076        -8.7913
  43   0.0000      -0.087840        -2.3902
  44   0.0000       0.008052         0.2191
  45   0.0000       0.043048         1.1714
  46   0.0000       0.088335         2.4037
  47   0.0000       0.115820         3.1516

MULLIKEN ATOMIC CHARGES AND SPIN POPULATIONS
--------------------------------------------
   0 C :   -0.388823    0.000035
   1 S :    0.005292   -0.001039
   2 C :    0.133223   -0.004407
   3 C :   -0.185657    0.001251
   4 C :   -0.205521    0.004336
   5 C :    0.021358   -0.004126
   6 C :   -0.192469    0.004214
   7 C :   -0.139408    0.001462
   8 C :    0.355052   -0.101401
   9 O :   -0.221401    0.544229
  10 O :   -0.218449    0.552141
  11 H :    0.159733   -0.000010
  12 H :    0.147782   -0.000043
  13 H :    0.145790   -0.000044
  14 H :    0.138089    0.000041
  15 H :    0.154032    0.001771
  16 H :    0.154601    0.001666
  17 H :    0.136777   -0.000075
Sum of atomic charges         :   -0.0000000

LOEWDIN ATOMIC CHARGES AND SPIN POPULATIONS
-------------------------------------------
   0 C :   -0.504762   -0.000039
   1 S :    0.586795   -0.001153
   2 C :   -0.350195   -0.002408
   3 C :   -0.141853    0.001442
   4 C :   -0.071272    0.000932
   5 C :   -0.146933    0.000066
   6 C :   -0.073641    0.001355
   7 C :   -0.137147    0.001531
   8 C :   -0.513593    0.024430
   9 O :    0.199486    0.482465
  10 O :    0.202301    0.489558
  11 H :    0.118754    0.000004
  12 H :    0.110295   -0.000027
  13 H :    0.109113   -0.000027
  14 H :    0.147188   -0.000036
  15 H :    0.158195    0.000968
  16 H :    0.158471    0.000979
  17 H :    0.148798   -0.000041

  Mayer bond orders larger than 0.100000
B(  0-C ,  1-S ) :   1.0718 B(  0-C , 11-H ) :   0.9583 B(  0-C , 12-H ) :   0.9599
B(  0-C , 13-H ) :   0.9594 B(  1-S ,  2-C ) :   1.2124 B(  2-C ,  3-C ) :   1.3097
B(  2-C ,  7-C ) :   1.3143 B(  3-C ,  4-C ) :   1.4501 B(  3-C , 14-H ) :   0.9608
B(  4-C ,  5-C ) :   1.3908 B(  4-C , 15-H ) :   0.9463 B(  5-C ,  6-C ) :   1.3479
B(  5-C ,  8-C ) :   0.9940 B(  6-C ,  7-C ) :   1.4876 B(  6-C , 16-H ) :   0.9560
B(  7-C , 17-H ) :   0.9693 B(  8-C ,  9-O ) :   1.6844 B(  8-C , 10-O ) :   1.6783
B(  9-O , 10-O ) :   0.3855

FINAL SINGLE POINT ENERGY      -857.640449065080

DIPOLE MOMENT
-------------
                                X             Y             Z
Electronic contribution:      2.75676      -6.61863      -5.85839
Nuclear contribution   :     -3.04972       8.18997       7.06672
                        -----------------------------------------
Total Dipole Moment    :     -0.29296       1.57135       1.20833
                        -----------------------------------------
Magnitude (a.u.)       :      2.00375
Magnitude (Debye)      :      5.09313

Rotational constants in cm-1:     0.107293     0.015074     0.013254
Rotational constants in MHz :  3216.564568   451.900246   397.341514

                             ****ORCA TERMINATED NORMALLY****
TOTAL RUN TIME: 0 days 0 hours 47 minutes 27 seconds 553 msec
