                         Program Version 5.0.3 -  RELEASE  -
|  1> ! UKS wB97X-V def2-TZVP TIGHTSCF Opt PAL8
|  2> %maxcore 5000
|  3> * xyz 0 1
|  4>  C -0.07425707479814 6.45007760366319 3.54636897867849
|  5>  S 1.48979584793712 6.08048225687873 2.75598260255209
|  6>  C 1.14936654141856 4.63662227087222 1.83369205968326
|  7>  C -0.09136557109480 4.00305286554088 1.79338352444578
|  8>  C -0.25826928718407 2.84269542505768 1.05936282240646
|  9>  C 0.80050967676942 2.30271389692801 0.33923873907232
| 10>  C 2.02875697338567 2.96040825022008 0.34201900047512
| 11>  C 2.20764771123846 4.10330343094754 1.09121055149825
| 12>  C 0.66254428710301 1.09941809961861 -0.50690159852297
| 13>  O 0.00000000000000 0.00000000000000 0.00000000000000
| 14>  O 1.06713866538631 0.98717129960580 -1.62357736506780
| 15>  O 0.00000000000000 0.00000000000000 1.41527284498687
| 16>  C -1.27388770944479 0.00000000000000 1.91590645535523
| 17>  C -1.22211457253867 0.06642777988277 3.38831477989974
| 18>  O -2.25742922897412 -0.02585779042736 1.23875652957256
| 19>  C -2.41543940252313 -0.12289611375011 4.08595252694906
| 20>  C -2.44195923478874 -0.03437680070658 5.45887710053507
| 21>  C -1.27275068522395 0.25496212808386 6.17298493884884
| 22>  C -0.08177795586127 0.45060655108151 5.47518008098465
| 23>  C -0.05890441770979 0.35440376081578 4.09544628781756
| 24>  S -1.42666733932306 0.34986111841343 7.90788531117200
| 25>  C 0.24316058065577 0.68495422113854 8.46194522255982
| 26>  H 0.10416325535368 7.34607684664392 4.14087383255362
| 27>  H -0.38882275224257 5.64387294862163 4.21002028523424
| 28>  H -0.85323854703301 6.66443357654391 2.81385647784552
| 29>  H -0.93700004363157 4.40513362395569 2.33421606140266
| 30>  H -1.23507439683237 2.37497021944690 1.02749021968162
| 31>  H 2.84544686618639 2.55882587909200 -0.24576673820719
| 32>  H 3.17295340310622 4.59670965109571 1.10248346369500
| 33>  H -3.31769085302541 -0.33900022625314 3.52707230389961
| 34>  H -3.37188538809726 -0.18808364875198 5.99464715790180
| 35>  H 0.83479761044422 0.68252071425859 5.99988733430662
| 36>  H 0.87046926144621 0.51883617942438 3.56602510045047
| 37>  H 0.18454114424639 0.73729393679500 9.54909076814075
| 38>  H 0.60864534290486 1.64029462399245 8.08374213903351
| 39>  H 0.92507514742305 -0.11949528816653 8.18458994466104
| 40> *
| 41>
| 42>                          ****END OF INPUT****
 Total Charge           Charge          ....    0
 Multiplicity           Mult            ....    1
 Number of Electrons    NEL             ....  174
FINAL SINGLE POINT ENERGY     -1715.331022946758
FINAL SINGLE POINT ENERGY     -1715.331218149426
FINAL SINGLE POINT ENERGY     -1715.330664854421
FINAL SINGLE POINT ENERGY     -1715.331397428598
FINAL SINGLE POINT ENERGY     -1715.331338205642
FINAL SINGLE POINT ENERGY     -1715.331334758093
FINAL SINGLE POINT ENERGY     -1715.331340708847
FINAL SINGLE POINT ENERGY     -1715.331341770430
FINAL SINGLE POINT ENERGY     -1715.331358913298
FINAL SINGLE POINT ENERGY     -1715.331369004568
FINAL SINGLE POINT ENERGY     -1715.331361188572
FINAL SINGLE POINT ENERGY     -1715.331359110157
                    ***********************HURRAY********************

CARTESIAN COORDINATES (ANGSTROEM)
---------------------------------
  C     -0.050749    6.157307    3.885516
  S      1.517029    5.821211    3.077127
  C      1.147791    4.463809    2.022928
  C     -0.123083    3.910126    1.867764
  C     -0.310848    2.815222    1.035499
  C      0.760670    2.268262    0.338771
  C      2.023047    2.847362    0.455860
  C      2.218373    3.925505    1.299894
  C      0.597739    1.117998   -0.594077
  O     -0.061927   -0.014260   -0.135523
  O      0.977456    1.081050   -1.724092
  O     -0.038972   -0.071178    1.278352
  C     -1.310298   -0.042872    1.803918
  C     -1.228874    0.056624    3.283471
  O     -2.305937   -0.067208    1.143792
  C     -2.385670   -0.205500    4.020606
  C     -2.382212   -0.064258    5.393524
  C     -1.223450    0.357705    6.060525
  C     -0.069426    0.619848    5.322377
  C     -0.073264    0.466493    3.942560
  S     -1.345737    0.529900    7.802729
  C      0.279049    1.126357    8.278626
  H      0.147301    6.972780    4.583142
  H     -0.405096    5.290671    4.447662
  H     -0.811154    6.483740    3.173615
  H     -0.977570    4.319068    2.393001
  H     -1.308084    2.400693    0.919234
  H      2.852615    2.439971   -0.113207
  H      3.208296    4.360101    1.403321
  H     -3.284780   -0.513859    3.497421
  H     -3.283322   -0.271296    5.963155
  H      0.840400    0.949032    5.809120
  H      0.826328    0.687772    3.378644
  H      0.236195    1.262749    9.360464
  H      0.505538    2.087019    7.812016
  H      1.059103    0.398478    8.047797

 Multiplicity           Mult            ....    1
 Number of Electrons    NEL             ....  174
 Basis Dimension        Dim             ....  778

ORBITAL ENERGIES
----------------
                 SPIN UP ORBITALS
  NO   OCC          E(Eh)            E(eV)
   0   1.0000     -88.881533     -2418.5895
   1   1.0000     -88.878428     -2418.5050
   2   1.0000     -19.327702      -525.9335
   3   1.0000     -19.323781      -525.8268
   4   1.0000     -19.220469      -523.0155
   5   1.0000     -19.219714      -522.9950
   6   1.0000     -10.421674      -283.5882
   7   1.0000     -10.420049      -283.5439
   8   1.0000     -10.335129      -281.2332
   9   1.0000     -10.330889      -281.1178
  10   1.0000     -10.315540      -280.7001
  11   1.0000     -10.313182      -280.6359
  12   1.0000     -10.305605      -280.4298
  13   1.0000     -10.305441      -280.4253
  14   1.0000     -10.304220      -280.3921
  15   1.0000     -10.301633      -280.3217
  16   1.0000     -10.300960      -280.3034
  17   1.0000     -10.300297      -280.2853
  18   1.0000     -10.297207      -280.2013
  19   1.0000     -10.296039      -280.1695
  20   1.0000     -10.296006      -280.1686
  21   1.0000     -10.294812      -280.1361
  22   1.0000      -8.060001      -219.3238
  23   1.0000      -8.056873      -219.2387
  24   1.0000      -6.016279      -163.7113
  25   1.0000      -6.013175      -163.6268
  26   1.0000      -6.012012      -163.5952
  27   1.0000      -6.008933      -163.5114
  28   1.0000      -6.007066      -163.4606
  29   1.0000      -6.003875      -163.3737
  30   1.0000      -1.335687       -36.3459
  31   1.0000      -1.224055       -33.3082
  32   1.0000      -1.193447       -32.4753
  33   1.0000      -1.092932       -29.7402
  34   1.0000      -1.031189       -28.0601
  35   1.0000      -1.029876       -28.0244
  36   1.0000      -0.964681       -26.2503
  37   1.0000      -0.962466       -26.1900
  38   1.0000      -0.910033       -24.7632
  39   1.0000      -0.907566       -24.6961
  40   1.0000      -0.902175       -24.5494
  41   1.0000      -0.899798       -24.4847
  42   1.0000      -0.825186       -22.4544
  43   1.0000      -0.813885       -22.1469
  44   1.0000      -0.773846       -21.0574
  45   1.0000      -0.761566       -20.7233
  46   1.0000      -0.760530       -20.6951
  47   1.0000      -0.741441       -20.1756
  48   1.0000      -0.720389       -19.6028
  49   1.0000      -0.701988       -19.1021
  50   1.0000      -0.679552       -18.4915
  51   1.0000      -0.668070       -18.1791
  52   1.0000      -0.628719       -17.1083
  53   1.0000      -0.616076       -16.7643
  54   1.0000      -0.606647       -16.5077
  55   1.0000      -0.604840       -16.4585
  56   1.0000      -0.593880       -16.1603
  57   1.0000      -0.583596       -15.8805
  58   1.0000      -0.580720       -15.8022
  59   1.0000      -0.579247       -15.7621
  60   1.0000      -0.571952       -15.5636
  61   1.0000      -0.566556       -15.4168
  62   1.0000      -0.563991       -15.3470
  63   1.0000      -0.557919       -15.1817
  64   1.0000      -0.552827       -15.0432
  65   1.0000      -0.545937       -14.8557
  66   1.0000      -0.540395       -14.7049
  67   1.0000      -0.532316       -14.4851
  68   1.0000      -0.520255       -14.1569
  69   1.0000      -0.514309       -13.9951
  70   1.0000      -0.509467       -13.8633
  71   1.0000      -0.491984       -13.3876
  72   1.0000      -0.484816       -13.1925
  73   1.0000      -0.472046       -12.8450
  74   1.0000      -0.471188       -12.8217
  75   1.0000      -0.460361       -12.5271
  76   1.0000      -0.440476       -11.9860
  77   1.0000      -0.438303       -11.9268
  78   1.0000      -0.427735       -11.6393
  79   1.0000      -0.418470       -11.3871
  80   1.0000      -0.415638       -11.3101
  81   1.0000      -0.405175       -11.0254
  82   1.0000      -0.396364       -10.7856
  83   1.0000      -0.376727       -10.2513
  84   1.0000      -0.371182       -10.1004
  85   1.0000      -0.320979        -8.7343
  86   1.0000      -0.317653        -8.6438
  87   0.0000       0.007674         0.2088
  88   0.0000       0.025436         0.6922
  89   0.0000       0.044881         1.2213
  90   0.0000       0.047973         1.3054
  91   0.0000       0.081632         2.2213

                 SPIN DOWN ORBITALS
  NO   OCC          E(Eh)            E(eV)
   0   1.0000     -88.881533     -2418.5895
   1   1.0000     -88.878428     -2418.5050
   2   1.0000     -19.327702      -525.9335
   3   1.0000     -19.323781      -525.8268
   4   1.0000     -19.220469      -523.0155
   5   1.0000     -19.219714      -522.9950
   6   1.0000     -10.421674      -283.5882
   7   1.0000     -10.420049      -283.5439
   8   1.0000     -10.335129      -281.2332
   9   1.0000     -10.330889      -281.1178
  10   1.0000     -10.315540      -280.7001
  11   1.0000     -10.313182      -280.6359
  12   1.0000     -10.305605      -280.4298
  13   1.0000     -10.305441      -280.4253
  14   1.0000     -10.304220      -280.3921
  15   1.0000     -10.301633      -280.3217
  16   1.0000     -10.300960      -280.3034
  17   1.0000     -10.300297      -280.2853
  18   1.0000     -10.297207      -280.2013
  19   1.0000     -10.296039      -280.1695
  20   1.0000     -10.296006      -280.1686
  21   1.0000     -10.294812      -280.1361
  22   1.0000      -8.060001      -219.3238
  23   1.0000      -8.056873      -219.2387
  24   1.0000      -6.016279      -163.7113
  25   1.0000      -6.013175      -163.6268
  26   1.0000      -6.012012      -163.5952
  27   1.0000      -6.008933      -163.5114
  28   1.0000      -6.007066      -163.4606
  29   1.0000      -6.003875      -163.3737
  30   1.0000      -1.335687       -36.3459
  31   1.0000      -1.224055       -33.3082
  32   1.0000      -1.193447       -32.4753
  33   1.0000      -1.092932       -29.7402
  34   1.0000      -1.031189       -28.0601
  35   1.0000      -1.029876       -28.0244
  36   1.0000      -0.964681       -26.2503
  37   1.0000      -0.962466       -26.1900
  38   1.0000      -0.910033       -24.7632
  39   1.0000      -0.907566       -24.6961
  40   1.0000      -0.902175       -24.5494
  41   1.0000      -0.899798       -24.4847
  42   1.0000      -0.825186       -22.4544
  43   1.0000      -0.813885       -22.1469
  44   1.0000      -0.773846       -21.0574
  45   1.0000      -0.761566       -20.7233
  46   1.0000      -0.760530       -20.6951
  47   1.0000      -0.741441       -20.1756
  48   1.0000      -0.720389       -19.6028
  49   1.0000      -0.701988       -19.1021
  50   1.0000      -0.679552       -18.4915
  51   1.0000      -0.668070       -18.1791
  52   1.0000      -0.628719       -17.1083
  53   1.0000      -0.616076       -16.7643
  54   1.0000      -0.606647       -16.5077
  55   1.0000      -0.604840       -16.4585
  56   1.0000      -0.593880       -16.1603
  57   1.0000      -0.583596       -15.8805
  58   1.0000      -0.580720       -15.8022
  59   1.0000      -0.579247       -15.7621
  60   1.0000      -0.571952       -15.5636
  61   1.0000      -0.566556       -15.4168
  62   1.0000      -0.563991       -15.3470
  63   1.0000      -0.557919       -15.1817
  64   1.0000      -0.552827       -15.0432
  65   1.0000      -0.545937       -14.8557
  66   1.0000      -0.540395       -14.7049
  67   1.0000      -0.532316       -14.4851
  68   1.0000      -0.520255       -14.1569
  69   1.0000      -0.514309       -13.9951
  70   1.0000      -0.509467       -13.8633
  71   1.0000      -0.491984       -13.3876
  72   1.0000      -0.484816       -13.1925
  73   1.0000      -0.472046       -12.8450
  74   1.0000      -0.471188       -12.8217
  75   1.0000      -0.460361       -12.5271
  76   1.0000      -0.440476       -11.9860
  77   1.0000      -0.438303       -11.9268
  78   1.0000      -0.427735       -11.6393
  79   1.0000      -0.418470       -11.3871
  80   1.0000      -0.415638       -11.3101
  81   1.0000      -0.405175       -11.0254
  82   1.0000      -0.396364       -10.7856
  83   1.0000      -0.376727       -10.2513
  84   1.0000      -0.371182       -10.1004
  85   1.0000      -0.320979        -8.7343
  86   1.0000      -0.317653        -8.6438
  87   0.0000       0.007674         0.2088
  88   0.0000       0.025436         0.6922
  89   0.0000       0.044881         1.2213
  90   0.0000       0.047973         1.3054
  91   0.0000       0.081632         2.2213

MULLIKEN ATOMIC CHARGES AND SPIN POPULATIONS
--------------------------------------------
   0 C :   -0.387663    0.000000
   1 S :   -0.005292    0.000000
   2 C :    0.133416    0.000000
   3 C :   -0.201628    0.000000
   4 C :   -0.220930    0.000000
   5 C :    0.093103    0.000000
   6 C :   -0.213616    0.000000
   7 C :   -0.153689    0.000000
   8 C :    0.247046    0.000000
   9 O :   -0.067770    0.000000
  10 O :   -0.244343    0.000000
  11 O :   -0.113561    0.000000
  12 C :    0.249759    0.000000
  13 C :    0.078267    0.000000
  14 O :   -0.261752    0.000000
  15 C :   -0.204214    0.000000
  16 C :   -0.141707    0.000000
  17 C :    0.143947    0.000000
  18 C :   -0.207737    0.000000
  19 C :   -0.214032    0.000000
  20 S :    0.002090    0.000000
  21 C :   -0.386043    0.000000
  22 H :    0.157782    0.000000
  23 H :    0.145063    0.000000
  24 H :    0.146124    0.000000
  25 H :    0.136916    0.000000
  26 H :    0.173569    0.000000
  27 H :    0.148885    0.000000
  28 H :    0.134456    0.000000
  29 H :    0.157814    0.000000
  30 H :    0.135125    0.000000
  31 H :    0.136324    0.000000
  32 H :    0.155223    0.000000
  33 H :    0.159447    0.000000
  34 H :    0.143373    0.000000
  35 H :    0.146249    0.000000
Sum of atomic charges         :   -0.0000000

LOEWDIN ATOMIC CHARGES AND SPIN POPULATIONS
-------------------------------------------
   0 C :   -0.506783    0.000000
   1 S :    0.575151    0.000000
   2 C :   -0.357703    0.000000
   3 C :   -0.142975    0.000000
   4 C :   -0.089861    0.000000
   5 C :   -0.143970    0.000000
   6 C :   -0.082615    0.000000
   7 C :   -0.138718    0.000000
   8 C :   -0.426532    0.000000
   9 O :    0.214105    0.000000
  10 O :    0.168345    0.000000
  11 O :    0.202862    0.000000
  12 C :   -0.457029    0.000000
  13 C :   -0.142086    0.000000
  14 O :    0.146092    0.000000
  15 C :   -0.073128    0.000000
  16 C :   -0.138928    0.000000
  17 C :   -0.353712    0.000000
  18 C :   -0.145798    0.000000
  19 C :   -0.083142    0.000000
  20 S :    0.582463    0.000000
  21 C :   -0.505839    0.000000
  22 H :    0.117681    0.000000
  23 H :    0.109293    0.000000
  24 H :    0.108954    0.000000
  25 H :    0.148344    0.000000
  26 H :    0.160332    0.000000
  27 H :    0.157767    0.000000
  28 H :    0.148121    0.000000
  29 H :    0.160094    0.000000
  30 H :    0.148355    0.000000
  31 H :    0.147248    0.000000
  32 H :    0.156865    0.000000
  33 H :    0.118314    0.000000
  34 H :    0.108971    0.000000
  35 H :    0.109463    0.000000

  Mayer bond orders larger than 0.100000
B(  0-C ,  1-S ) :   1.0752 B(  0-C , 22-H ) :   0.9585 B(  0-C , 23-H ) :   0.9604
B(  0-C , 24-H ) :   0.9598 B(  1-S ,  2-C ) :   1.1979 B(  2-C ,  3-C ) :   1.3048
B(  2-C ,  7-C ) :   1.3290 B(  3-C ,  4-C ) :   1.4566 B(  3-C , 25-H ) :   0.9629
B(  4-C ,  5-C ) :   1.3678 B(  4-C , 26-H ) :   0.9205 B(  5-C ,  6-C ) :   1.3821
B(  5-C ,  8-C ) :   0.9370 B(  6-C ,  7-C ) :   1.4744 B(  6-C , 27-H ) :   0.9662
B(  7-C , 28-H ) :   0.9700 B(  8-C ,  9-O ) :   1.1056 B(  8-C , 10-O ) :   2.2066
B(  9-O , 11-O ) :   0.8275 B( 11-O , 12-C ) :   1.1197 B( 12-C , 13-C ) :   0.9515
B( 12-C , 14-O ) :   2.1496 B( 13-C , 15-C ) :   1.3581 B( 13-C , 19-C ) :   1.3849
B( 15-C , 16-C ) :   1.4838 B( 15-C , 29-H ) :   0.9568 B( 16-C , 17-C ) :   1.3091
B( 16-C , 30-H ) :   0.9722 B( 17-C , 18-C ) :   1.3074 B( 17-C , 20-S ) :   1.2099
B( 18-C , 19-C ) :   1.4544 B( 18-C , 31-H ) :   0.9600 B( 19-C , 32-H ) :   0.9553
B( 20-S , 21-C ) :   1.0748 B( 21-C , 33-H ) :   0.9582 B( 21-C , 34-H ) :   0.9606
B( 21-C , 35-H ) :   0.9599

FINAL SINGLE POINT ENERGY     -1715.331368555848

DIPOLE MOMENT
-------------
                                X             Y             Z
Electronic contribution:     -0.92234      -9.14139     -14.63985
Nuclear contribution   :      1.30775      10.30686      17.31634
                        -----------------------------------------
Total Dipole Moment    :      0.38542       1.16548       2.67649
                        -----------------------------------------
Magnitude (a.u.)       :      2.94457
Magnitude (Debye)      :      7.48451

Rotational constants in cm-1:     0.008971     0.005560     0.003807
Rotational constants in MHz :   268.930497   166.692027   114.138470

                             ****ORCA TERMINATED NORMALLY****
TOTAL RUN TIME: 0 days 1 hours 33 minutes 9 seconds 267 msec
