                         Program Version 5.0.3 -  RELEASE  -
|  1> ! UKS wB97X-D3 def2-TZVP TIGHTSCF Opt CPCM PAL8
|  2> %maxcore 5000
|  3> %cpcm
|  4> smd true
|  5> SMDsolvent "DMSO"
|  6> end
|  7> * xyz 0 1
|  8>  C -0.07425707479814 6.45007760366319 3.54636897867849
|  9>  S 1.48979584793712 6.08048225687873 2.75598260255209
| 10>  C 1.14936654141856 4.63662227087222 1.83369205968326
| 11>  C -0.09136557109480 4.00305286554088 1.79338352444578
| 12>  C -0.25826928718407 2.84269542505768 1.05936282240646
| 13>  C 0.80050967676942 2.30271389692801 0.33923873907232
| 14>  C 2.02875697338567 2.96040825022008 0.34201900047512
| 15>  C 2.20764771123846 4.10330343094754 1.09121055149825
| 16>  C 0.66254428710301 1.09941809961861 -0.50690159852297
| 17>  O 0.00000000000000 0.00000000000000 0.00000000000000
| 18>  O 1.06713866538631 0.98717129960580 -1.62357736506780
| 19>  O 0.00000000000000 0.00000000000000 1.41527284498687
| 20>  C -1.27388770944479 0.00000000000000 1.91590645535523
| 21>  C -1.22211457253867 0.06642777988277 3.38831477989974
| 22>  O -2.25742922897412 -0.02585779042736 1.23875652957256
| 23>  C -2.41543940252313 -0.12289611375011 4.08595252694906
| 24>  C -2.44195923478874 -0.03437680070658 5.45887710053507
| 25>  C -1.27275068522395 0.25496212808386 6.17298493884884
| 26>  C -0.08177795586127 0.45060655108151 5.47518008098465
| 27>  C -0.05890441770979 0.35440376081578 4.09544628781756
| 28>  S -1.42666733932306 0.34986111841343 7.90788531117200
| 29>  C 0.24316058065577 0.68495422113854 8.46194522255982
| 30>  H 0.10416325535368 7.34607684664392 4.14087383255362
| 31>  H -0.38882275224257 5.64387294862163 4.21002028523424
| 32>  H -0.85323854703301 6.66443357654391 2.81385647784552
| 33>  H -0.93700004363157 4.40513362395569 2.33421606140266
| 34>  H -1.23507439683237 2.37497021944690 1.02749021968162
| 35>  H 2.84544686618639 2.55882587909200 -0.24576673820719
| 36>  H 3.17295340310622 4.59670965109571 1.10248346369500
| 37>  H -3.31769085302541 -0.33900022625314 3.52707230389961
| 38>  H -3.37188538809726 -0.18808364875198 5.99464715790180
| 39>  H 0.83479761044422 0.68252071425859 5.99988733430662
| 40>  H 0.87046926144621 0.51883617942438 3.56602510045047
| 41>  H 0.18454114424639 0.73729393679500 9.54909076814075
| 42>  H 0.60864534290486 1.64029462399245 8.08374213903351
| 43>  H 0.92507514742305 -0.11949528816653 8.18458994466104
| 44> *
| 45>
| 46>                          ****END OF INPUT****
 Total Charge           Charge          ....    0
 Multiplicity           Mult            ....    1
 Number of Electrons    NEL             ....  174
Dispersion correction           -0.016304727
FINAL SINGLE POINT ENERGY     -1715.480414731759
Dispersion correction            ... done
Dispersion correction           -0.016030140
FINAL SINGLE POINT ENERGY     -1715.480469560179
Dispersion correction            ... done
Dispersion correction           -0.016767546
FINAL SINGLE POINT ENERGY     -1715.480684875276
Dispersion correction            ... done
FINAL SINGLE POINT ENERGY     -1715.481192474954
FINAL SINGLE POINT ENERGY     -1715.481105618414
FINAL SINGLE POINT ENERGY     -1715.481337748738
FINAL SINGLE POINT ENERGY     -1715.481409421949
FINAL SINGLE POINT ENERGY     -1715.481445985896
FINAL SINGLE POINT ENERGY     -1715.481494294436
FINAL SINGLE POINT ENERGY     -1715.481509609573
FINAL SINGLE POINT ENERGY     -1715.482793023414
FINAL SINGLE POINT ENERGY     -1715.482795067072
FINAL SINGLE POINT ENERGY     -1715.482785327792
FINAL SINGLE POINT ENERGY     -1715.482797014552
FINAL SINGLE POINT ENERGY     -1715.482798925136
FINAL SINGLE POINT ENERGY     -1715.482795466975
FINAL SINGLE POINT ENERGY     -1715.482786542440
Dispersion correction            ... done
Dispersion correction           -0.022666202
FINAL SINGLE POINT ENERGY     -1715.482776208430
Dispersion correction            ... done
Dispersion correction           -0.022621403
FINAL SINGLE POINT ENERGY     -1715.482785720699
Dispersion correction            ... done
                    ***********************HURRAY********************

CARTESIAN COORDINATES (ANGSTROEM)
---------------------------------
  C     -0.469059    5.000258    4.760633
  S      1.164920    4.813634    4.043349
  C      0.860618    3.872416    2.589081
  C     -0.393252    3.740258    2.002487
  C     -0.561636    2.924085    0.893379
  C      0.518091    2.229559    0.371011
  C      1.784411    2.394884    0.923802
  C      1.954905    3.219324    2.016737
  C      0.313352    1.251680   -0.734895
  O      0.211505   -0.080878   -0.379423
  O      0.236714    1.480739   -1.901926
  O      0.241274   -0.256469    1.018696
  C     -1.020317   -0.114782    1.564405
  C     -0.934652    0.142859    3.015191
  O     -2.014880   -0.147820    0.903002
  C     -2.130210    0.217221    3.731638
  C     -2.131000    0.635597    5.042688
  C     -0.933117    0.998405    5.669796
  C      0.264126    0.893138    4.965714
  C      0.260495    0.468379    3.648762
  S     -1.052952    1.580834    7.317650
  C      0.600583    2.165012    7.687937
  H     -0.315812    5.447675    5.742928
  H     -0.952247    4.030239    4.885380
  H     -1.101854    5.664435    4.173707
  H     -1.255592    4.250558    2.409782
  H     -1.548167    2.809875    0.459713
  H      2.631560    1.854036    0.518551
  H      2.939670    3.321728    2.458350
  H     -3.064029   -0.028353    3.241930
  H     -3.068725    0.707868    5.581719
  H      1.206498    1.159894    5.424213
  H      1.198726    0.426852    3.112787
  H      0.538154    2.607636    8.682094
  H      0.913707    2.933929    6.981621
  H      1.324668    1.351712    7.713040

 Multiplicity           Mult            ....    1
 Number of Electrons    NEL             ....  174
 Basis Dimension        Dim             ....  778

ORBITAL ENERGIES
----------------
                 SPIN UP ORBITALS
  NO   OCC          E(Eh)            E(eV)
   0   1.0000     -88.958522     -2420.6844
   1   1.0000     -88.954692     -2420.5802
   2   1.0000     -19.349623      -526.5300
   3   1.0000     -19.345713      -526.4236
   4   1.0000     -19.247315      -523.7461
   5   1.0000     -19.239861      -523.5432
   6   1.0000     -10.434966      -283.9499
   7   1.0000     -10.428949      -283.7861
   8   1.0000     -10.330786      -281.1150
   9   1.0000     -10.324601      -280.9467
  10   1.0000     -10.307431      -280.4794
  11   1.0000     -10.303934      -280.3843
  12   1.0000     -10.298724      -280.2425
  13   1.0000     -10.297360      -280.2054
  14   1.0000     -10.296798      -280.1901
  15   1.0000     -10.296440      -280.1804
  16   1.0000     -10.296065      -280.1702
  17   1.0000     -10.294659      -280.1319
  18   1.0000     -10.290341      -280.0144
  19   1.0000     -10.290124      -280.0085
  20   1.0000     -10.289477      -279.9909
  21   1.0000     -10.289114      -279.9810
  22   1.0000      -8.055510      -219.2016
  23   1.0000      -8.051642      -219.0963
  24   1.0000      -6.009397      -163.5240
  25   1.0000      -6.005599      -163.4206
  26   1.0000      -6.005306      -163.4127
  27   1.0000      -6.001582      -163.3114
  28   1.0000      -6.000901      -163.2928
  29   1.0000      -5.996844      -163.1824
  30   1.0000      -1.327040       -36.1106
  31   1.0000      -1.214816       -33.0568
  32   1.0000      -1.183599       -32.2074
  33   1.0000      -1.079233       -29.3674
  34   1.0000      -1.005418       -27.3588
  35   1.0000      -1.002382       -27.2762
  36   1.0000      -0.936835       -25.4926
  37   1.0000      -0.933514       -25.4022
  38   1.0000      -0.882090       -24.0029
  39   1.0000      -0.881448       -23.9854
  40   1.0000      -0.874788       -23.8042
  41   1.0000      -0.870979       -23.7005
  42   1.0000      -0.804081       -21.8802
  43   1.0000      -0.785595       -21.3771
  44   1.0000      -0.757218       -20.6050
  45   1.0000      -0.737458       -20.0672
  46   1.0000      -0.734958       -19.9992
  47   1.0000      -0.716091       -19.4858
  48   1.0000      -0.698820       -19.0159
  49   1.0000      -0.677771       -18.4431
  50   1.0000      -0.661431       -17.9984
  51   1.0000      -0.647393       -17.6164
  52   1.0000      -0.621433       -16.9100
  53   1.0000      -0.598205       -16.2780
  54   1.0000      -0.592145       -16.1131
  55   1.0000      -0.582301       -15.8452
  56   1.0000      -0.574124       -15.6227
  57   1.0000      -0.566440       -15.4136
  58   1.0000      -0.561836       -15.2883
  59   1.0000      -0.553529       -15.0623
  60   1.0000      -0.550792       -14.9878
  61   1.0000      -0.540664       -14.7122
  62   1.0000      -0.537078       -14.6146
  63   1.0000      -0.534123       -14.5342
  64   1.0000      -0.531278       -14.4568
  65   1.0000      -0.524687       -14.2775
  66   1.0000      -0.517642       -14.0858
  67   1.0000      -0.503335       -13.6965
  68   1.0000      -0.500669       -13.6239
  69   1.0000      -0.493028       -13.4160
  70   1.0000      -0.487567       -13.2674
  71   1.0000      -0.469491       -12.7755
  72   1.0000      -0.466576       -12.6962
  73   1.0000      -0.450264       -12.2523
  74   1.0000      -0.448447       -12.2029
  75   1.0000      -0.446336       -12.1454
  76   1.0000      -0.430890       -11.7251
  77   1.0000      -0.420351       -11.4383
  78   1.0000      -0.417355       -11.3568
  79   1.0000      -0.404134       -10.9971
  80   1.0000      -0.399380       -10.8677
  81   1.0000      -0.393399       -10.7049
  82   1.0000      -0.383554       -10.4370
  83   1.0000      -0.358411        -9.7529
  84   1.0000      -0.355705        -9.6792
  85   1.0000      -0.305402        -8.3104
  86   1.0000      -0.300375        -8.1736
  87   0.0000       0.006549         0.1782
  88   0.0000       0.040473         1.1013
  89   0.0000       0.048977         1.3327
  90   0.0000       0.052027         1.4157
  91   0.0000       0.069478         1.8906

                 SPIN DOWN ORBITALS
  NO   OCC          E(Eh)            E(eV)
   0   1.0000     -88.958522     -2420.6844
   1   1.0000     -88.954692     -2420.5802
   2   1.0000     -19.349623      -526.5300
   3   1.0000     -19.345713      -526.4236
   4   1.0000     -19.247315      -523.7461
   5   1.0000     -19.239861      -523.5432
   6   1.0000     -10.434966      -283.9499
   7   1.0000     -10.428949      -283.7861
   8   1.0000     -10.330786      -281.1150
   9   1.0000     -10.324601      -280.9467
  10   1.0000     -10.307431      -280.4794
  11   1.0000     -10.303934      -280.3843
  12   1.0000     -10.298724      -280.2425
  13   1.0000     -10.297360      -280.2054
  14   1.0000     -10.296798      -280.1901
  15   1.0000     -10.296440      -280.1804
  16   1.0000     -10.296065      -280.1702
  17   1.0000     -10.294659      -280.1319
  18   1.0000     -10.290341      -280.0144
  19   1.0000     -10.290124      -280.0085
  20   1.0000     -10.289477      -279.9909
  21   1.0000     -10.289114      -279.9810
  22   1.0000      -8.055510      -219.2016
  23   1.0000      -8.051642      -219.0963
  24   1.0000      -6.009397      -163.5240
  25   1.0000      -6.005599      -163.4206
  26   1.0000      -6.005306      -163.4127
  27   1.0000      -6.001582      -163.3114
  28   1.0000      -6.000901      -163.2928
  29   1.0000      -5.996844      -163.1824
  30   1.0000      -1.327040       -36.1106
  31   1.0000      -1.214816       -33.0568
  32   1.0000      -1.183599       -32.2074
  33   1.0000      -1.079233       -29.3674
  34   1.0000      -1.005418       -27.3588
  35   1.0000      -1.002382       -27.2762
  36   1.0000      -0.936835       -25.4926
  37   1.0000      -0.933514       -25.4022
  38   1.0000      -0.882090       -24.0029
  39   1.0000      -0.881448       -23.9854
  40   1.0000      -0.874788       -23.8042
  41   1.0000      -0.870979       -23.7005
  42   1.0000      -0.804081       -21.8802
  43   1.0000      -0.785595       -21.3771
  44   1.0000      -0.757218       -20.6050
  45   1.0000      -0.737458       -20.0672
  46   1.0000      -0.734958       -19.9992
  47   1.0000      -0.716091       -19.4858
  48   1.0000      -0.698820       -19.0159
  49   1.0000      -0.677771       -18.4431
  50   1.0000      -0.661431       -17.9984
  51   1.0000      -0.647393       -17.6164
  52   1.0000      -0.621433       -16.9100
  53   1.0000      -0.598205       -16.2780
  54   1.0000      -0.592145       -16.1131
  55   1.0000      -0.582301       -15.8452
  56   1.0000      -0.574124       -15.6227
  57   1.0000      -0.566440       -15.4136
  58   1.0000      -0.561836       -15.2883
  59   1.0000      -0.553529       -15.0623
  60   1.0000      -0.550792       -14.9878
  61   1.0000      -0.540664       -14.7122
  62   1.0000      -0.537078       -14.6146
  63   1.0000      -0.534123       -14.5342
  64   1.0000      -0.531278       -14.4568
  65   1.0000      -0.524687       -14.2775
  66   1.0000      -0.517642       -14.0858
  67   1.0000      -0.503335       -13.6965
  68   1.0000      -0.500669       -13.6239
  69   1.0000      -0.493028       -13.4160
  70   1.0000      -0.487567       -13.2674
  71   1.0000      -0.469491       -12.7755
  72   1.0000      -0.466576       -12.6962
  73   1.0000      -0.450264       -12.2523
  74   1.0000      -0.448447       -12.2029
  75   1.0000      -0.446336       -12.1454
  76   1.0000      -0.430890       -11.7251
  77   1.0000      -0.420351       -11.4383
  78   1.0000      -0.417355       -11.3568
  79   1.0000      -0.404134       -10.9971
  80   1.0000      -0.399380       -10.8677
  81   1.0000      -0.393399       -10.7049
  82   1.0000      -0.383554       -10.4370
  83   1.0000      -0.358411        -9.7529
  84   1.0000      -0.355705        -9.6792
  85   1.0000      -0.305402        -8.3104
  86   1.0000      -0.300375        -8.1736
  87   0.0000       0.006549         0.1782
  88   0.0000       0.040473         1.1013
  89   0.0000       0.048977         1.3327
  90   0.0000       0.052027         1.4157
  91   0.0000       0.069478         1.8906

MULLIKEN ATOMIC CHARGES AND SPIN POPULATIONS
--------------------------------------------
   0 C :   -0.421439   -0.000000
   1 S :   -0.071989    0.000000
   2 C :    0.179629    0.000000
   3 C :   -0.293574    0.000000
   4 C :   -0.187314   -0.000000
   5 C :    0.070286   -0.000000
   6 C :   -0.222092    0.000000
   7 C :   -0.200304   -0.000000
   8 C :    0.319789    0.000000
   9 O :   -0.100260   -0.000000
  10 O :   -0.310294    0.000000
  11 O :   -0.127917   -0.000000
  12 C :    0.360802   -0.000000
  13 C :    0.071829   -0.000000
  14 O :   -0.328763   -0.000000
  15 C :   -0.234772    0.000000
  16 C :   -0.158659   -0.000000
  17 C :    0.134468    0.000000
  18 C :   -0.264085   -0.000000
  19 C :   -0.257012    0.000000
  20 S :   -0.048031    0.000000
  21 C :   -0.409732    0.000000
  22 H :    0.188937   -0.000000
  23 H :    0.161245    0.000000
  24 H :    0.180448    0.000000
  25 H :    0.186582    0.000000
  26 H :    0.184803   -0.000000
  27 H :    0.176708    0.000000
  28 H :    0.169889   -0.000000
  29 H :    0.172585    0.000000
  30 H :    0.171792    0.000000
  31 H :    0.188013    0.000000
  32 H :    0.197024    0.000000
  33 H :    0.189084   -0.000000
  34 H :    0.157829   -0.000000
  35 H :    0.174491   -0.000000
Sum of atomic charges         :   -0.0000000

LOEWDIN ATOMIC CHARGES AND SPIN POPULATIONS
-------------------------------------------
   0 C :   -0.505477   -0.000000
   1 S :    0.553303    0.000000
   2 C :   -0.370387    0.000000
   3 C :   -0.137014    0.000000
   4 C :   -0.094954   -0.000000
   5 C :   -0.152153   -0.000000
   6 C :   -0.095163    0.000000
   7 C :   -0.141206    0.000000
   8 C :   -0.420669   -0.000000
   9 O :    0.205387    0.000000
  10 O :    0.141795    0.000000
  11 O :    0.196455    0.000000
  12 C :   -0.444415   -0.000000
  13 C :   -0.151361   -0.000000
  14 O :    0.127939    0.000000
  15 C :   -0.078421    0.000000
  16 C :   -0.144083    0.000000
  17 C :   -0.362898   -0.000000
  18 C :   -0.141977   -0.000000
  19 C :   -0.081991   -0.000000
  20 S :    0.567293    0.000000
  21 C :   -0.501667    0.000000
  22 H :    0.126726   -0.000000
  23 H :    0.116566    0.000000
  24 H :    0.116574    0.000000
  25 H :    0.162270   -0.000000
  26 H :    0.168087    0.000000
  27 H :    0.168274    0.000000
  28 H :    0.159587   -0.000000
  29 H :    0.166192    0.000000
  30 H :    0.159398   -0.000000
  31 H :    0.162044    0.000000
  32 H :    0.165337    0.000000
  33 H :    0.127675   -0.000000
  34 H :    0.114749   -0.000000
  35 H :    0.118183   -0.000000

  Mayer bond orders larger than 0.100000
B(  0-C ,  1-S ) :   1.0416 B(  0-C , 22-H ) :   0.9427 B(  0-C , 23-H ) :   0.9534
B(  0-C , 24-H ) :   0.9557 B(  1-S ,  2-C ) :   1.1239 B(  2-C ,  3-C ) :   1.2767
B(  2-C ,  7-C ) :   1.2576 B(  3-C ,  4-C ) :   1.4273 B(  3-C , 25-H ) :   0.9739
B(  4-C ,  5-C ) :   1.3236 B(  4-C , 26-H ) :   0.9815 B(  5-C ,  6-C ) :   1.2888
B(  5-C ,  8-C ) :   0.9419 B(  6-C ,  7-C ) :   1.4619 B(  6-C , 27-H ) :   0.9979
B(  7-C , 28-H ) :   0.9855 B(  8-C ,  9-O ) :   1.1029 B(  8-C , 10-O ) :   2.1355
B(  9-O , 11-O ) :   0.8265 B( 11-O , 12-C ) :   1.0666 B( 12-C , 13-C ) :   1.0062
B( 12-C , 14-O ) :   2.0685 B( 13-C , 15-C ) :   1.3030 B( 13-C , 19-C ) :   1.3119
B( 15-C , 16-C ) :   1.5011 B( 15-C , 29-H ) :   0.9748 B( 16-C , 17-C ) :   1.2575
B( 16-C , 30-H ) :   0.9818 B( 17-C , 18-C ) :   1.2675 B( 17-C , 20-S ) :   1.1887
B( 18-C , 19-C ) :   1.4542 B( 18-C , 31-H ) :   0.9700 B( 19-C , 32-H ) :   0.9630
B( 20-S , 21-C ) :   1.0571 B( 21-C , 33-H ) :   0.9428 B( 21-C , 34-H ) :   0.9535
B( 21-C , 35-H ) :   0.9549

Dispersion correction           -0.022611108
FINAL SINGLE POINT ENERGY     -1715.482786925431

DIPOLE MOMENT
-------------
                                X             Y             Z
Electronic contribution:     -0.43173      -8.58258     -14.57484
Nuclear contribution   :      1.12326       9.81130      18.02788
                        -----------------------------------------
Total Dipole Moment    :      0.69152       1.22873       3.45304
                        -----------------------------------------
Magnitude (a.u.)       :      3.72981
Magnitude (Debye)      :      9.48042

Rotational constants in cm-1:     0.012592     0.006353     0.004809
Rotational constants in MHz :   377.508647   190.470231   144.162321

                             ****ORCA TERMINATED NORMALLY****
TOTAL RUN TIME: 0 days 4 hours 13 minutes 43 seconds 695 msec
