                         Program Version 5.0.3 -  RELEASE  -
|  1> ! UKS PBE0 def2-TZVP def2/J RIJCOSX D3BJ TIGHTSCF Opt CPCM PAL8
|  2> %maxcore 5000
|  3> %cpcm
|  4> smd true
|  5> SMDsolvent "DMF"
|  6> end
|  7> * xyz 0 1
|  8>  C -0.07425707479814 6.45007760366319 3.54636897867849
|  9>  S 1.48979584793712 6.08048225687873 2.75598260255209
| 10>  C 1.14936654141856 4.63662227087222 1.83369205968326
| 11>  C -0.09136557109480 4.00305286554088 1.79338352444578
| 12>  C -0.25826928718407 2.84269542505768 1.05936282240646
| 13>  C 0.80050967676942 2.30271389692801 0.33923873907232
| 14>  C 2.02875697338567 2.96040825022008 0.34201900047512
| 15>  C 2.20764771123846 4.10330343094754 1.09121055149825
| 16>  C 0.66254428710301 1.09941809961861 -0.50690159852297
| 17>  O 0.00000000000000 0.00000000000000 0.00000000000000
| 18>  O 1.06713866538631 0.98717129960580 -1.62357736506780
| 19>  O 0.00000000000000 0.00000000000000 1.41527284498687
| 20>  C -1.27388770944479 0.00000000000000 1.91590645535523
| 21>  C -1.22211457253867 0.06642777988277 3.38831477989974
| 22>  O -2.25742922897412 -0.02585779042736 1.23875652957256
| 23>  C -2.41543940252313 -0.12289611375011 4.08595252694906
| 24>  C -2.44195923478874 -0.03437680070658 5.45887710053507
| 25>  C -1.27275068522395 0.25496212808386 6.17298493884884
| 26>  C -0.08177795586127 0.45060655108151 5.47518008098465
| 27>  C -0.05890441770979 0.35440376081578 4.09544628781756
| 28>  S -1.42666733932306 0.34986111841343 7.90788531117200
| 29>  C 0.24316058065577 0.68495422113854 8.46194522255982
| 30>  H 0.10416325535368 7.34607684664392 4.14087383255362
| 31>  H -0.38882275224257 5.64387294862163 4.21002028523424
| 32>  H -0.85323854703301 6.66443357654391 2.81385647784552
| 33>  H -0.93700004363157 4.40513362395569 2.33421606140266
| 34>  H -1.23507439683237 2.37497021944690 1.02749021968162
| 35>  H 2.84544686618639 2.55882587909200 -0.24576673820719
| 36>  H 3.17295340310622 4.59670965109571 1.10248346369500
| 37>  H -3.31769085302541 -0.33900022625314 3.52707230389961
| 38>  H -3.37188538809726 -0.18808364875198 5.99464715790180
| 39>  H 0.83479761044422 0.68252071425859 5.99988733430662
| 40>  H 0.87046926144621 0.51883617942438 3.56602510045047
| 41>  H 0.18454114424639 0.73729393679500 9.54909076814075
| 42>  H 0.60864534290486 1.64029462399245 8.08374213903351
| 43>  H 0.92507514742305 -0.11949528816653 8.18458994466104
| 44> *
| 45>
| 46>                          ****END OF INPUT****
 Total Charge           Charge          ....    0
 Multiplicity           Mult            ....    1
 Number of Electrons    NEL             ....  174
Dispersion correction           -0.043892970
FINAL SINGLE POINT ENERGY     -1714.467476129882
Dispersion correction            ... done
Dispersion correction           -0.043265657
FINAL SINGLE POINT ENERGY     -1714.467419405350
Dispersion correction            ... done
Dispersion correction           -0.043893208
FINAL SINGLE POINT ENERGY     -1714.467808176684
Dispersion correction            ... done
FINAL SINGLE POINT ENERGY     -1714.467928005550
FINAL SINGLE POINT ENERGY     -1714.467976669949
FINAL SINGLE POINT ENERGY     -1714.467997371702
FINAL SINGLE POINT ENERGY     -1714.467997199587
FINAL SINGLE POINT ENERGY     -1714.468028348728
FINAL SINGLE POINT ENERGY     -1714.468017699336
Dispersion correction            ... done
Dispersion correction           -0.044214352
FINAL SINGLE POINT ENERGY     -1714.468027184156
Dispersion correction            ... done
Dispersion correction           -0.044220529
FINAL SINGLE POINT ENERGY     -1714.468028907690
Dispersion correction            ... done
                    ***********************HURRAY********************

CARTESIAN COORDINATES (ANGSTROEM)
---------------------------------
  C      0.074485    6.292184    3.782878
  S      1.594166    5.954970    2.897037
  C      1.206245    4.560829    1.918886
  C     -0.049092    3.952556    1.896337
  C     -0.262437    2.831037    1.116721
  C      0.760115    2.309427    0.330772
  C      2.003757    2.940507    0.322093
  C      2.230130    4.043867    1.117063
  C      0.564776    1.151092   -0.557084
  O     -0.069221    0.028510   -0.074208
  O      0.898904    1.082943   -1.705263
  O     -0.044522   -0.021280    1.340689
  C     -1.311225   -0.100275    1.861204
  C     -1.246730   -0.000517    3.326088
  O     -2.293728   -0.230515    1.190150
  C     -2.378415   -0.369643    4.056871
  C     -2.390897   -0.253184    5.427833
  C     -1.271621    0.248491    6.106336
  C     -0.141647    0.620355    5.376682
  C     -0.131461    0.493385    4.000004
  S     -1.396254    0.372411    7.841078
  C      0.185731    1.045215    8.341709
  H      0.290086    7.157618    4.411411
  H     -0.210465    5.455871    4.422378
  H     -0.738889    6.546995    3.102674
  H     -0.867485    4.341862    2.486650
  H     -1.250804    2.387217    1.103580
  H      2.802497    2.548961   -0.297026
  H      3.209335    4.510386    1.119016
  H     -3.249019   -0.750167    3.536557
  H     -3.274620   -0.547820    5.983509
  H      0.734515    1.016404    5.872079
  H      0.749984    0.801850    3.452807
  H      0.131181    1.137531    9.427616
  H      0.353103    2.033913    7.913338
  H      1.006002    0.373434    8.087064

 Multiplicity           Mult            ....    1
 Number of Electrons    NEL             ....  174
 Basis Dimension        Dim             ....  778

ORBITAL ENERGIES
----------------
                 SPIN UP ORBITALS
  NO   OCC          E(Eh)            E(eV)
   0   1.0000     -89.034515     -2422.7523
   1   1.0000     -89.032672     -2422.7022
   2   1.0000     -19.320096      -525.7265
   3   1.0000     -19.319880      -525.7207
   4   1.0000     -19.214300      -522.8477
   5   1.0000     -19.209600      -522.7198
   6   1.0000     -10.371274      -282.2167
   7   1.0000     -10.367079      -282.1026
   8   1.0000     -10.276923      -279.6493
   9   1.0000     -10.274601      -279.5861
  10   1.0000     -10.251259      -278.9509
  11   1.0000     -10.249914      -278.9143
  12   1.0000     -10.245153      -278.7848
  13   1.0000     -10.244625      -278.7704
  14   1.0000     -10.243184      -278.7312
  15   1.0000     -10.243079      -278.7283
  16   1.0000     -10.242551      -278.7140
  17   1.0000     -10.242494      -278.7124
  18   1.0000     -10.237365      -278.5729
  19   1.0000     -10.236833      -278.5584
  20   1.0000     -10.236249      -278.5425
  21   1.0000     -10.236207      -278.5414
  22   1.0000      -8.013261      -218.0519
  23   1.0000      -8.011416      -218.0017
  24   1.0000      -5.949736      -161.9006
  25   1.0000      -5.947927      -161.8513
  26   1.0000      -5.946062      -161.8006
  27   1.0000      -5.944272      -161.7519
  28   1.0000      -5.942309      -161.6984
  29   1.0000      -5.940382      -161.6460
  30   1.0000      -1.235268       -33.6133
  31   1.0000      -1.122802       -30.5530
  32   1.0000      -1.089786       -29.6546
  33   1.0000      -0.993138       -27.0247
  34   1.0000      -0.910990       -24.7893
  35   1.0000      -0.909791       -24.7567
  36   1.0000      -0.844019       -22.9669
  37   1.0000      -0.842226       -22.9181
  38   1.0000      -0.789973       -21.4963
  39   1.0000      -0.787808       -21.4373
  40   1.0000      -0.781732       -21.2720
  41   1.0000      -0.779265       -21.2049
  42   1.0000      -0.711559       -19.3625
  43   1.0000      -0.696408       -18.9502
  44   1.0000      -0.663727       -18.0609
  45   1.0000      -0.646021       -17.5791
  46   1.0000      -0.644177       -17.5289
  47   1.0000      -0.628357       -17.0985
  48   1.0000      -0.607421       -16.5288
  49   1.0000      -0.592435       -16.1210
  50   1.0000      -0.571345       -15.5471
  51   1.0000      -0.564372       -15.3574
  52   1.0000      -0.528246       -14.3743
  53   1.0000      -0.510219       -13.8838
  54   1.0000      -0.499828       -13.6010
  55   1.0000      -0.498205       -13.5568
  56   1.0000      -0.486757       -13.2453
  57   1.0000      -0.479361       -13.0441
  58   1.0000      -0.477071       -12.9818
  59   1.0000      -0.467398       -12.7185
  60   1.0000      -0.464634       -12.6433
  61   1.0000      -0.450680       -12.2636
  62   1.0000      -0.449095       -12.2205
  63   1.0000      -0.445431       -12.1208
  64   1.0000      -0.445159       -12.1134
  65   1.0000      -0.444423       -12.0934
  66   1.0000      -0.432707       -11.7746
  67   1.0000      -0.419306       -11.4099
  68   1.0000      -0.414051       -11.2669
  69   1.0000      -0.405542       -11.0354
  70   1.0000      -0.403312       -10.9747
  71   1.0000      -0.389089       -10.5876
  72   1.0000      -0.385206       -10.4820
  73   1.0000      -0.370818       -10.0905
  74   1.0000      -0.368784       -10.0351
  75   1.0000      -0.366295        -9.9674
  76   1.0000      -0.339273        -9.2321
  77   1.0000      -0.338610        -9.2140
  78   1.0000      -0.335663        -9.1338
  79   1.0000      -0.325260        -8.8508
  80   1.0000      -0.320003        -8.7077
  81   1.0000      -0.311500        -8.4763
  82   1.0000      -0.306196        -8.3320
  83   1.0000      -0.285922        -7.7803
  84   1.0000      -0.281526        -7.6607
  85   1.0000      -0.232827        -6.3356
  86   1.0000      -0.230685        -6.2772
  87   0.0000      -0.060857        -1.6560
  88   0.0000      -0.048367        -1.3161
  89   0.0000      -0.020503        -0.5579
  90   0.0000      -0.017591        -0.4787
  91   0.0000       0.000892         0.0243

                 SPIN DOWN ORBITALS
  NO   OCC          E(Eh)            E(eV)
   0   1.0000     -89.034515     -2422.7523
   1   1.0000     -89.032672     -2422.7022
   2   1.0000     -19.320096      -525.7265
   3   1.0000     -19.319880      -525.7207
   4   1.0000     -19.214300      -522.8477
   5   1.0000     -19.209600      -522.7198
   6   1.0000     -10.371274      -282.2167
   7   1.0000     -10.367079      -282.1026
   8   1.0000     -10.276923      -279.6493
   9   1.0000     -10.274601      -279.5861
  10   1.0000     -10.251259      -278.9509
  11   1.0000     -10.249914      -278.9143
  12   1.0000     -10.245153      -278.7848
  13   1.0000     -10.244625      -278.7704
  14   1.0000     -10.243184      -278.7312
  15   1.0000     -10.243079      -278.7283
  16   1.0000     -10.242551      -278.7140
  17   1.0000     -10.242494      -278.7124
  18   1.0000     -10.237365      -278.5729
  19   1.0000     -10.236833      -278.5584
  20   1.0000     -10.236249      -278.5425
  21   1.0000     -10.236207      -278.5414
  22   1.0000      -8.013261      -218.0519
  23   1.0000      -8.011416      -218.0017
  24   1.0000      -5.949736      -161.9006
  25   1.0000      -5.947927      -161.8513
  26   1.0000      -5.946062      -161.8006
  27   1.0000      -5.944272      -161.7519
  28   1.0000      -5.942309      -161.6984
  29   1.0000      -5.940382      -161.6460
  30   1.0000      -1.235268       -33.6133
  31   1.0000      -1.122802       -30.5530
  32   1.0000      -1.089786       -29.6546
  33   1.0000      -0.993138       -27.0247
  34   1.0000      -0.910990       -24.7893
  35   1.0000      -0.909791       -24.7567
  36   1.0000      -0.844019       -22.9669
  37   1.0000      -0.842226       -22.9181
  38   1.0000      -0.789973       -21.4963
  39   1.0000      -0.787808       -21.4373
  40   1.0000      -0.781732       -21.2720
  41   1.0000      -0.779265       -21.2049
  42   1.0000      -0.711559       -19.3625
  43   1.0000      -0.696408       -18.9502
  44   1.0000      -0.663727       -18.0609
  45   1.0000      -0.646021       -17.5791
  46   1.0000      -0.644177       -17.5289
  47   1.0000      -0.628357       -17.0985
  48   1.0000      -0.607421       -16.5288
  49   1.0000      -0.592435       -16.1210
  50   1.0000      -0.571345       -15.5471
  51   1.0000      -0.564372       -15.3574
  52   1.0000      -0.528246       -14.3743
  53   1.0000      -0.510219       -13.8838
  54   1.0000      -0.499828       -13.6010
  55   1.0000      -0.498205       -13.5568
  56   1.0000      -0.486757       -13.2453
  57   1.0000      -0.479361       -13.0441
  58   1.0000      -0.477071       -12.9818
  59   1.0000      -0.467398       -12.7185
  60   1.0000      -0.464634       -12.6433
  61   1.0000      -0.450680       -12.2636
  62   1.0000      -0.449095       -12.2205
  63   1.0000      -0.445431       -12.1208
  64   1.0000      -0.445159       -12.1134
  65   1.0000      -0.444423       -12.0934
  66   1.0000      -0.432707       -11.7746
  67   1.0000      -0.419306       -11.4099
  68   1.0000      -0.414051       -11.2669
  69   1.0000      -0.405542       -11.0354
  70   1.0000      -0.403312       -10.9747
  71   1.0000      -0.389089       -10.5876
  72   1.0000      -0.385206       -10.4820
  73   1.0000      -0.370818       -10.0905
  74   1.0000      -0.368784       -10.0351
  75   1.0000      -0.366295        -9.9674
  76   1.0000      -0.339273        -9.2321
  77   1.0000      -0.338610        -9.2140
  78   1.0000      -0.335663        -9.1338
  79   1.0000      -0.325260        -8.8508
  80   1.0000      -0.320003        -8.7077
  81   1.0000      -0.311500        -8.4763
  82   1.0000      -0.306196        -8.3320
  83   1.0000      -0.285922        -7.7803
  84   1.0000      -0.281526        -7.6607
  85   1.0000      -0.232827        -6.3356
  86   1.0000      -0.230685        -6.2772
  87   0.0000      -0.060857        -1.6560
  88   0.0000      -0.048367        -1.3161
  89   0.0000      -0.020503        -0.5579
  90   0.0000      -0.017591        -0.4787
  91   0.0000       0.000892         0.0243

MULLIKEN ATOMIC CHARGES AND SPIN POPULATIONS
--------------------------------------------
   0 C :   -0.419378    0.000000
   1 S :   -0.059402    0.000000
   2 C :    0.158412    0.000000
   3 C :   -0.230682    0.000000
   4 C :   -0.234132    0.000000
   5 C :    0.146227    0.000000
   6 C :   -0.259497    0.000000
   7 C :   -0.190625    0.000000
   8 C :    0.273474    0.000000
   9 O :   -0.081667    0.000000
  10 O :   -0.302229    0.000000
  11 O :   -0.114252    0.000000
  12 C :    0.285837    0.000000
  13 C :    0.117512    0.000000
  14 O :   -0.314211    0.000000
  15 C :   -0.240316    0.000000
  16 C :   -0.184822    0.000000
  17 C :    0.167458    0.000000
  18 C :   -0.237879    0.000000
  19 C :   -0.229759    0.000000
  20 S :   -0.051608    0.000000
  21 C :   -0.419330    0.000000
  22 H :    0.190289    0.000000
  23 H :    0.175590    0.000000
  24 H :    0.175372    0.000000
  25 H :    0.172185    0.000000
  26 H :    0.167268    0.000000
  27 H :    0.166689    0.000000
  28 H :    0.160931    0.000000
  29 H :    0.163083    0.000000
  30 H :    0.160805    0.000000
  31 H :    0.172078    0.000000
  32 H :    0.173170    0.000000
  33 H :    0.191117    0.000000
  34 H :    0.176110    0.000000
  35 H :    0.176183    0.000000
Sum of atomic charges         :   -0.0000000

LOEWDIN ATOMIC CHARGES AND SPIN POPULATIONS
-------------------------------------------
   0 C :   -0.506575    0.000000
   1 S :    0.574151    0.000000
   2 C :   -0.372569    0.000000
   3 C :   -0.140026    0.000000
   4 C :   -0.091456    0.000000
   5 C :   -0.154964    0.000000
   6 C :   -0.087973    0.000000
   7 C :   -0.143627    0.000000
   8 C :   -0.445889    0.000000
   9 O :    0.215224    0.000000
  10 O :    0.133180    0.000000
  11 O :    0.211474    0.000000
  12 C :   -0.472514    0.000000
  13 C :   -0.150562    0.000000
  14 O :    0.120550    0.000000
  15 C :   -0.082223    0.000000
  16 C :   -0.143421    0.000000
  17 C :   -0.369726    0.000000
  18 C :   -0.140776    0.000000
  19 C :   -0.088723    0.000000
  20 S :    0.582465    0.000000
  21 C :   -0.505254    0.000000
  22 H :    0.129571    0.000000
  23 H :    0.121602    0.000000
  24 H :    0.121431    0.000000
  25 H :    0.163453    0.000000
  26 H :    0.166885    0.000000
  27 H :    0.167140    0.000000
  28 H :    0.159981    0.000000
  29 H :    0.166543    0.000000
  30 H :    0.160159    0.000000
  31 H :    0.162815    0.000000
  32 H :    0.165566    0.000000
  33 H :    0.130015    0.000000
  34 H :    0.122047    0.000000
  35 H :    0.122026    0.000000

  Mayer bond orders larger than 0.100000
B(  0-C ,  1-S ) :   1.0642 B(  0-C , 22-H ) :   0.9366 B(  0-C , 23-H ) :   0.9486
B(  0-C , 24-H ) :   0.9469 B(  1-S ,  2-C ) :   1.1839 B(  2-C ,  3-C ) :   1.2796
B(  2-C ,  7-C ) :   1.2767 B(  3-C ,  4-C ) :   1.4538 B(  3-C , 25-H ) :   0.9607
B(  4-C ,  5-C ) :   1.3119 B(  4-C , 26-H ) :   0.9410 B(  5-C ,  6-C ) :   1.3056
B(  5-C ,  8-C ) :   0.9607 B(  6-C ,  7-C ) :   1.4762 B(  6-C , 27-H ) :   0.9784
B(  7-C , 28-H ) :   0.9750 B(  8-C ,  9-O ) :   1.1171 B(  8-C , 10-O ) :   2.1348
B(  9-O , 11-O ) :   0.8168 B( 11-O , 12-C ) :   1.0999 B( 12-C , 13-C ) :   0.9896
B( 12-C , 14-O ) :   2.0755 B( 13-C , 15-C ) :   1.2883 B( 13-C , 19-C ) :   1.3198
B( 15-C , 16-C ) :   1.4904 B( 15-C , 29-H ) :   0.9747 B( 16-C , 17-C ) :   1.2599
B( 16-C , 30-H ) :   0.9766 B( 17-C , 18-C ) :   1.2830 B( 17-C , 20-S ) :   1.1959
B( 18-C , 19-C ) :   1.4511 B( 18-C , 31-H ) :   0.9607 B( 19-C , 32-H ) :   0.9598
B( 20-S , 21-C ) :   1.0639 B( 21-C , 33-H ) :   0.9361 B( 21-C , 34-H ) :   0.9477
B( 21-C , 35-H ) :   0.9476

Dispersion correction           -0.044218139
FINAL SINGLE POINT ENERGY     -1714.468033423595

DIPOLE MOMENT
-------------
                                X             Y             Z
Electronic contribution:     -0.83679      -8.69742     -13.45743
Nuclear contribution   :      1.40640      10.53763      17.33165
                        -----------------------------------------
Total Dipole Moment    :      0.56961       1.84021       3.87421
                        -----------------------------------------
Magnitude (a.u.)       :      4.32670
Magnitude (Debye)      :     10.99760

Rotational constants in cm-1:     0.008909     0.005351     0.003658
Rotational constants in MHz :   267.083667   160.420262   109.670086

                             ****ORCA TERMINATED NORMALLY****
TOTAL RUN TIME: 0 days 0 hours 51 minutes 43 seconds 85 msec
