                         Program Version 5.0.3 -  RELEASE  -
|  1> ! UKS wB97X-V def2-TZVP TIGHTSCF Opt CPCM PAL8
|  2> %maxcore 5000
|  3> %cpcm
|  4> smd true
|  5> SMDsolvent "DMF"
|  6> end
|  7> * xyz 0 1
|  8>  C -0.07425707479814 6.45007760366319 3.54636897867849
|  9>  S 1.48979584793712 6.08048225687873 2.75598260255209
| 10>  C 1.14936654141856 4.63662227087222 1.83369205968326
| 11>  C -0.09136557109480 4.00305286554088 1.79338352444578
| 12>  C -0.25826928718407 2.84269542505768 1.05936282240646
| 13>  C 0.80050967676942 2.30271389692801 0.33923873907232
| 14>  C 2.02875697338567 2.96040825022008 0.34201900047512
| 15>  C 2.20764771123846 4.10330343094754 1.09121055149825
| 16>  C 0.66254428710301 1.09941809961861 -0.50690159852297
| 17>  O 0.00000000000000 0.00000000000000 0.00000000000000
| 18>  O 1.06713866538631 0.98717129960580 -1.62357736506780
| 19>  O 0.00000000000000 0.00000000000000 1.41527284498687
| 20>  C -1.27388770944479 0.00000000000000 1.91590645535523
| 21>  C -1.22211457253867 0.06642777988277 3.38831477989974
| 22>  O -2.25742922897412 -0.02585779042736 1.23875652957256
| 23>  C -2.41543940252313 -0.12289611375011 4.08595252694906
| 24>  C -2.44195923478874 -0.03437680070658 5.45887710053507
| 25>  C -1.27275068522395 0.25496212808386 6.17298493884884
| 26>  C -0.08177795586127 0.45060655108151 5.47518008098465
| 27>  C -0.05890441770979 0.35440376081578 4.09544628781756
| 28>  S -1.42666733932306 0.34986111841343 7.90788531117200
| 29>  C 0.24316058065577 0.68495422113854 8.46194522255982
| 30>  H 0.10416325535368 7.34607684664392 4.14087383255362
| 31>  H -0.38882275224257 5.64387294862163 4.21002028523424
| 32>  H -0.85323854703301 6.66443357654391 2.81385647784552
| 33>  H -0.93700004363157 4.40513362395569 2.33421606140266
| 34>  H -1.23507439683237 2.37497021944690 1.02749021968162
| 35>  H 2.84544686618639 2.55882587909200 -0.24576673820719
| 36>  H 3.17295340310622 4.59670965109571 1.10248346369500
| 37>  H -3.31769085302541 -0.33900022625314 3.52707230389961
| 38>  H -3.37188538809726 -0.18808364875198 5.99464715790180
| 39>  H 0.83479761044422 0.68252071425859 5.99988733430662
| 40>  H 0.87046926144621 0.51883617942438 3.56602510045047
| 41>  H 0.18454114424639 0.73729393679500 9.54909076814075
| 42>  H 0.60864534290486 1.64029462399245 8.08374213903351
| 43>  H 0.92507514742305 -0.11949528816653 8.18458994466104
| 44> *
| 45>
| 46>                          ****END OF INPUT****
 Total Charge           Charge          ....    0
 Multiplicity           Mult            ....    1
 Number of Electrons    NEL             ....  174
FINAL SINGLE POINT ENERGY     -1715.362526190240
FINAL SINGLE POINT ENERGY     -1715.362744303771
FINAL SINGLE POINT ENERGY     -1715.362877824115
FINAL SINGLE POINT ENERGY     -1715.363496129178
FINAL SINGLE POINT ENERGY     -1715.363445802727
FINAL SINGLE POINT ENERGY     -1715.363532689458
FINAL SINGLE POINT ENERGY     -1715.363552164065
FINAL SINGLE POINT ENERGY     -1715.363617946837
FINAL SINGLE POINT ENERGY     -1715.363636102955
FINAL SINGLE POINT ENERGY     -1715.363641779141
FINAL SINGLE POINT ENERGY     -1715.363659558206
FINAL SINGLE POINT ENERGY     -1715.363661223508
                    ***********************HURRAY********************

CARTESIAN COORDINATES (ANGSTROEM)
---------------------------------
  C      0.001252    6.162852    3.904958
  S      1.556778    5.809775    3.079553
  C      1.167327    4.459546    2.020971
  C     -0.118131    3.937244    1.868236
  C     -0.332072    2.851334    1.030712
  C      0.726523    2.287776    0.325273
  C      2.006337    2.827279    0.449035
  C      2.226913    3.896527    1.299560
  C      0.523540    1.152052   -0.612709
  O     -0.055329   -0.010794   -0.135574
  O      0.807649    1.139087   -1.775527
  O     -0.023490   -0.062637    1.277543
  C     -1.296631   -0.079801    1.807309
  C     -1.221019    0.036531    3.281812
  O     -2.285763   -0.173509    1.139417
  C     -2.347143   -0.323274    4.027489
  C     -2.342540   -0.188430    5.401348
  C     -1.214342    0.323062    6.059561
  C     -0.091116    0.684955    5.314069
  C     -0.096046    0.539203    3.933803
  S     -1.322019    0.471070    7.805484
  C      0.255764    1.188198    8.273982
  H      0.217891    6.973568    4.604300
  H     -0.356432    5.298907    4.469055
  H     -0.762036    6.502369    3.202352
  H     -0.962042    4.362248    2.398383
  H     -1.340602    2.463146    0.918400
  H      2.834496    2.397079   -0.105956
  H      3.231364    4.296637    1.406965
  H     -3.226005   -0.710428    3.522281
  H     -3.221053   -0.475142    5.972691
  H      0.793483    1.086367    5.793676
  H      0.781807    0.838937    3.371357
  H      0.210754    1.309166    9.358761
  H      0.399998    2.169297    7.817512
  H      1.088415    0.526225    8.029448

 Multiplicity           Mult            ....    1
 Number of Electrons    NEL             ....  174
 Basis Dimension        Dim             ....  778

ORBITAL ENERGIES
----------------
                 SPIN UP ORBITALS
  NO   OCC          E(Eh)            E(eV)
   0   1.0000     -88.868073     -2418.2232
   1   1.0000     -88.866161     -2418.1712
   2   1.0000     -19.329355      -525.9785
   3   1.0000     -19.328927      -525.9668
   4   1.0000     -19.225258      -523.1459
   5   1.0000     -19.221300      -523.0382
   6   1.0000     -10.425538      -283.6933
   7   1.0000     -10.421905      -283.5944
   8   1.0000     -10.323561      -280.9184
   9   1.0000     -10.320338      -280.8307
  10   1.0000     -10.299386      -280.2605
  11   1.0000     -10.297222      -280.2017
  12   1.0000     -10.292827      -280.0821
  13   1.0000     -10.292237      -280.0660
  14   1.0000     -10.290750      -280.0255
  15   1.0000     -10.290567      -280.0206
  16   1.0000     -10.289139      -279.9817
  17   1.0000     -10.288492      -279.9641
  18   1.0000     -10.283392      -279.8253
  19   1.0000     -10.283344      -279.8240
  20   1.0000     -10.283085      -279.8170
  21   1.0000     -10.282544      -279.8022
  22   1.0000      -8.046548      -218.9577
  23   1.0000      -8.044610      -218.9050
  24   1.0000      -6.002704      -163.3419
  25   1.0000      -6.000799      -163.2900
  26   1.0000      -5.998471      -163.2267
  27   1.0000      -5.996595      -163.1756
  28   1.0000      -5.993893      -163.1021
  29   1.0000      -5.991866      -163.0470
  30   1.0000      -1.339091       -36.4385
  31   1.0000      -1.227258       -33.3954
  32   1.0000      -1.194773       -32.5114
  33   1.0000      -1.094915       -29.7942
  34   1.0000      -1.020788       -27.7770
  35   1.0000      -1.019334       -27.7375
  36   1.0000      -0.951840       -25.9009
  37   1.0000      -0.949890       -25.8478
  38   1.0000      -0.898133       -24.4394
  39   1.0000      -0.895961       -24.3803
  40   1.0000      -0.888866       -24.1873
  41   1.0000      -0.886370       -24.1193
  42   1.0000      -0.814898       -22.1745
  43   1.0000      -0.800341       -21.7784
  44   1.0000      -0.765523       -20.8309
  45   1.0000      -0.750370       -20.4186
  46   1.0000      -0.748377       -20.3644
  47   1.0000      -0.730881       -19.8883
  48   1.0000      -0.709021       -19.2934
  49   1.0000      -0.694025       -18.8854
  50   1.0000      -0.673260       -18.3203
  51   1.0000      -0.663951       -18.0670
  52   1.0000      -0.629589       -17.1320
  53   1.0000      -0.609311       -16.5802
  54   1.0000      -0.598474       -16.2853
  55   1.0000      -0.595651       -16.2085
  56   1.0000      -0.581996       -15.8369
  57   1.0000      -0.578273       -15.7356
  58   1.0000      -0.573940       -15.6177
  59   1.0000      -0.564937       -15.3727
  60   1.0000      -0.562131       -15.2964
  61   1.0000      -0.547002       -14.8847
  62   1.0000      -0.545329       -14.8392
  63   1.0000      -0.541940       -14.7469
  64   1.0000      -0.541000       -14.7214
  65   1.0000      -0.540439       -14.7061
  66   1.0000      -0.528019       -14.3681
  67   1.0000      -0.512815       -13.9544
  68   1.0000      -0.507406       -13.8072
  69   1.0000      -0.504923       -13.7397
  70   1.0000      -0.500560       -13.6209
  71   1.0000      -0.476923       -12.9777
  72   1.0000      -0.473105       -12.8738
  73   1.0000      -0.462034       -12.5726
  74   1.0000      -0.459201       -12.4955
  75   1.0000      -0.457062       -12.4373
  76   1.0000      -0.433085       -11.7848
  77   1.0000      -0.426141       -11.5959
  78   1.0000      -0.424701       -11.5567
  79   1.0000      -0.414772       -11.2865
  80   1.0000      -0.410787       -11.1781
  81   1.0000      -0.400879       -10.9085
  82   1.0000      -0.394695       -10.7402
  83   1.0000      -0.367007        -9.9868
  84   1.0000      -0.361100        -9.8260
  85   1.0000      -0.309794        -8.4299
  86   1.0000      -0.308003        -8.3812
  87   0.0000       0.013850         0.3769
  88   0.0000       0.032511         0.8847
  89   0.0000       0.055091         1.4991
  90   0.0000       0.058253         1.5851
  91   0.0000       0.087936         2.3929

                 SPIN DOWN ORBITALS
  NO   OCC          E(Eh)            E(eV)
   0   1.0000     -88.868073     -2418.2232
   1   1.0000     -88.866161     -2418.1712
   2   1.0000     -19.329355      -525.9785
   3   1.0000     -19.328927      -525.9668
   4   1.0000     -19.225258      -523.1459
   5   1.0000     -19.221300      -523.0382
   6   1.0000     -10.425538      -283.6933
   7   1.0000     -10.421905      -283.5944
   8   1.0000     -10.323561      -280.9184
   9   1.0000     -10.320338      -280.8307
  10   1.0000     -10.299386      -280.2605
  11   1.0000     -10.297222      -280.2017
  12   1.0000     -10.292827      -280.0821
  13   1.0000     -10.292237      -280.0660
  14   1.0000     -10.290750      -280.0255
  15   1.0000     -10.290567      -280.0206
  16   1.0000     -10.289139      -279.9817
  17   1.0000     -10.288492      -279.9641
  18   1.0000     -10.283392      -279.8253
  19   1.0000     -10.283344      -279.8240
  20   1.0000     -10.283085      -279.8170
  21   1.0000     -10.282544      -279.8022
  22   1.0000      -8.046548      -218.9577
  23   1.0000      -8.044610      -218.9050
  24   1.0000      -6.002704      -163.3419
  25   1.0000      -6.000799      -163.2900
  26   1.0000      -5.998471      -163.2267
  27   1.0000      -5.996595      -163.1756
  28   1.0000      -5.993893      -163.1021
  29   1.0000      -5.991866      -163.0470
  30   1.0000      -1.339091       -36.4385
  31   1.0000      -1.227258       -33.3954
  32   1.0000      -1.194773       -32.5114
  33   1.0000      -1.094915       -29.7942
  34   1.0000      -1.020788       -27.7770
  35   1.0000      -1.019334       -27.7375
  36   1.0000      -0.951840       -25.9009
  37   1.0000      -0.949890       -25.8478
  38   1.0000      -0.898133       -24.4394
  39   1.0000      -0.895961       -24.3803
  40   1.0000      -0.888866       -24.1873
  41   1.0000      -0.886370       -24.1193
  42   1.0000      -0.814898       -22.1745
  43   1.0000      -0.800341       -21.7784
  44   1.0000      -0.765523       -20.8309
  45   1.0000      -0.750370       -20.4186
  46   1.0000      -0.748377       -20.3644
  47   1.0000      -0.730881       -19.8883
  48   1.0000      -0.709021       -19.2934
  49   1.0000      -0.694025       -18.8854
  50   1.0000      -0.673260       -18.3203
  51   1.0000      -0.663951       -18.0670
  52   1.0000      -0.629589       -17.1320
  53   1.0000      -0.609311       -16.5802
  54   1.0000      -0.598474       -16.2853
  55   1.0000      -0.595651       -16.2085
  56   1.0000      -0.581996       -15.8369
  57   1.0000      -0.578273       -15.7356
  58   1.0000      -0.573940       -15.6177
  59   1.0000      -0.564937       -15.3727
  60   1.0000      -0.562131       -15.2964
  61   1.0000      -0.547002       -14.8847
  62   1.0000      -0.545329       -14.8392
  63   1.0000      -0.541940       -14.7469
  64   1.0000      -0.541000       -14.7214
  65   1.0000      -0.540439       -14.7061
  66   1.0000      -0.528019       -14.3681
  67   1.0000      -0.512815       -13.9544
  68   1.0000      -0.507406       -13.8072
  69   1.0000      -0.504923       -13.7397
  70   1.0000      -0.500560       -13.6209
  71   1.0000      -0.476923       -12.9777
  72   1.0000      -0.473105       -12.8738
  73   1.0000      -0.462034       -12.5726
  74   1.0000      -0.459201       -12.4955
  75   1.0000      -0.457062       -12.4373
  76   1.0000      -0.433085       -11.7848
  77   1.0000      -0.426141       -11.5959
  78   1.0000      -0.424701       -11.5567
  79   1.0000      -0.414772       -11.2865
  80   1.0000      -0.410787       -11.1781
  81   1.0000      -0.400879       -10.9085
  82   1.0000      -0.394695       -10.7402
  83   1.0000      -0.367007        -9.9868
  84   1.0000      -0.361100        -9.8260
  85   1.0000      -0.309794        -8.4299
  86   1.0000      -0.308003        -8.3812
  87   0.0000       0.013850         0.3769
  88   0.0000       0.032511         0.8847
  89   0.0000       0.055091         1.4991
  90   0.0000       0.058253         1.5851
  91   0.0000       0.087936         2.3929

MULLIKEN ATOMIC CHARGES AND SPIN POPULATIONS
--------------------------------------------
   0 C :   -0.411064    0.000000
   1 S :   -0.040371    0.000000
   2 C :    0.118945    0.000000
   3 C :   -0.234689    0.000000
   4 C :   -0.225304    0.000000
   5 C :    0.112908    0.000000
   6 C :   -0.248670    0.000000
   7 C :   -0.189897    0.000000
   8 C :    0.266921    0.000000
   9 O :   -0.078489    0.000000
  10 O :   -0.287176    0.000000
  11 O :   -0.109853    0.000000
  12 C :    0.270732    0.000000
  13 C :    0.116917    0.000000
  14 O :   -0.294896    0.000000
  15 C :   -0.237977    0.000000
  16 C :   -0.185093    0.000000
  17 C :    0.132175    0.000000
  18 C :   -0.243608    0.000000
  19 C :   -0.239436    0.000000
  20 S :   -0.032397    0.000000
  21 C :   -0.411434    0.000000
  22 H :    0.183150    0.000000
  23 H :    0.166392    0.000000
  24 H :    0.166580    0.000000
  25 H :    0.182158    0.000000
  26 H :    0.179169    0.000000
  27 H :    0.178550    0.000000
  28 H :    0.169688    0.000000
  29 H :    0.173922    0.000000
  30 H :    0.169262    0.000000
  31 H :    0.181396    0.000000
  32 H :    0.182345    0.000000
  33 H :    0.184231    0.000000
  34 H :    0.167421    0.000000
  35 H :    0.167492    0.000000
Sum of atomic charges         :    0.0000000

LOEWDIN ATOMIC CHARGES AND SPIN POPULATIONS
-------------------------------------------
   0 C :   -0.499873    0.000000
   1 S :    0.553142    0.000000
   2 C :   -0.363392    0.000000
   3 C :   -0.138096    0.000000
   4 C :   -0.090966    0.000000
   5 C :   -0.152199    0.000000
   6 C :   -0.086703    0.000000
   7 C :   -0.141135    0.000000
   8 C :   -0.421925    0.000000
   9 O :    0.207266    0.000000
  10 O :    0.134744    0.000000
  11 O :    0.203138    0.000000
  12 C :   -0.447163    0.000000
  13 C :   -0.149373    0.000000
  14 O :    0.123081    0.000000
  15 C :   -0.077804    0.000000
  16 C :   -0.142151    0.000000
  17 C :   -0.358450    0.000000
  18 C :   -0.139823    0.000000
  19 C :   -0.085043    0.000000
  20 S :    0.561998    0.000000
  21 C :   -0.498613    0.000000
  22 H :    0.124907    0.000000
  23 H :    0.116772    0.000000
  24 H :    0.116013    0.000000
  25 H :    0.160756    0.000000
  26 H :    0.164360    0.000000
  27 H :    0.165213    0.000000
  28 H :    0.157181    0.000000
  29 H :    0.164325    0.000000
  30 H :    0.157277    0.000000
  31 H :    0.160123    0.000000
  32 H :    0.162987    0.000000
  33 H :    0.125443    0.000000
  34 H :    0.117160    0.000000
  35 H :    0.116825    0.000000

  Mayer bond orders larger than 0.100000
B(  0-C ,  1-S ) :   1.0634 B(  0-C , 22-H ) :   0.9471 B(  0-C , 23-H ) :   0.9573
B(  0-C , 24-H ) :   0.9562 B(  1-S ,  2-C ) :   1.2005 B(  2-C ,  3-C ) :   1.2980
B(  2-C ,  7-C ) :   1.2958 B(  3-C ,  4-C ) :   1.4528 B(  3-C , 25-H ) :   0.9666
B(  4-C ,  5-C ) :   1.3238 B(  4-C , 26-H ) :   0.9386 B(  5-C ,  6-C ) :   1.3398
B(  5-C ,  8-C ) :   0.9320 B(  6-C ,  7-C ) :   1.4822 B(  6-C , 27-H ) :   0.9745
B(  7-C , 28-H ) :   0.9730 B(  8-C ,  9-O ) :   1.1208 B(  8-C , 10-O ) :   2.2008
B(  9-O , 11-O ) :   0.8287 B( 11-O , 12-C ) :   1.1144 B( 12-C , 13-C ) :   0.9592
B( 12-C , 14-O ) :   2.1435 B( 13-C , 15-C ) :   1.3050 B( 13-C , 19-C ) :   1.3303
B( 15-C , 16-C ) :   1.5028 B( 15-C , 29-H ) :   0.9703 B( 16-C , 17-C ) :   1.2759
B( 16-C , 30-H ) :   0.9752 B( 17-C , 18-C ) :   1.3049 B( 17-C , 20-S ) :   1.2141
B( 18-C , 19-C ) :   1.4620 B( 18-C , 31-H ) :   0.9628 B( 19-C , 32-H ) :   0.9592
B( 20-S , 21-C ) :   1.0628 B( 21-C , 33-H ) :   0.9464 B( 21-C , 34-H ) :   0.9569
B( 21-C , 35-H ) :   0.9565

FINAL SINGLE POINT ENERGY     -1715.363661830223

DIPOLE MOMENT
-------------
                                X             Y             Z
Electronic contribution:     -0.84846      -9.02595     -13.94170
Nuclear contribution   :      1.38951      10.60434      17.43505
                        -----------------------------------------
Total Dipole Moment    :      0.54105       1.57839       3.49335
                        -----------------------------------------
Magnitude (a.u.)       :      3.87137
Magnitude (Debye)      :      9.84025

Rotational constants in cm-1:     0.008934     0.005573     0.003777
Rotational constants in MHz :   267.824245   167.076328   113.244146

                             ****ORCA TERMINATED NORMALLY****
TOTAL RUN TIME: 0 days 1 hours 36 minutes 16 seconds 542 msec
