                         Program Version 5.0.3 -  RELEASE  -
|  1> ! UKS wB97X-D3 def2-TZVP TIGHTSCF Opt CPCM PAL8
|  2> %maxcore 5000
|  3> %cpcm
|  4> smd true
|  5> SMDsolvent "DMF"
|  6> end
|  7> * xyz 0 2
|  8>  C -0.07425707479814 6.45007760366319 3.54636897867849
|  9>  S 1.48979584793712 6.08048225687873 2.75598260255209
| 10>  C 1.14936654141856 4.63662227087222 1.83369205968326
| 11>  C -0.09136557109480 4.00305286554088 1.79338352444578
| 12>  C -0.25826928718407 2.84269542505768 1.05936282240646
| 13>  C 0.80050967676942 2.30271389692801 0.33923873907232
| 14>  C 2.02875697338567 2.96040825022008 0.34201900047512
| 15>  C 2.20764771123846 4.10330343094754 1.09121055149825
| 16>  C 0.66254428710301 1.09941809961861 -0.50690159852297
| 17>  O 0.00000000000000 0.00000000000000 0.00000000000000
| 18>  O 1.06713866538631 0.98717129960580 -1.62357736506780
| 19>  H 0.10416325535368 7.34607684664392 4.14087383255362
| 20>  H -0.38882275224257 5.64387294862163 4.21002028523424
| 21>  H -0.85323854703301 6.66443357654391 2.81385647784552
| 22>  H -0.93700004363157 4.40513362395569 2.33421606140266
| 23>  H -1.23507439683237 2.37497021944690 1.02749021968162
| 24>  H 2.84544686618639 2.55882587909200 -0.24576673820719
| 25>  H 3.17295340310622 4.59670965109571 1.10248346369500
| 26> *
| 27>
| 28>                          ****END OF INPUT****
 Total Charge           Charge          ....    0
 Multiplicity           Mult            ....    2
 Number of Electrons    NEL             ....   87
Dispersion correction           -0.005675522
FINAL SINGLE POINT ENERGY      -857.710966327884
Dispersion correction            ... done
Dispersion correction           -0.005668958
FINAL SINGLE POINT ENERGY      -857.715208453432
Dispersion correction            ... done
Dispersion correction           -0.005642742
FINAL SINGLE POINT ENERGY      -857.715602647263
Dispersion correction            ... done
FINAL SINGLE POINT ENERGY      -857.717514108929
FINAL SINGLE POINT ENERGY      -857.717863781737
FINAL SINGLE POINT ENERGY      -857.719105665443
FINAL SINGLE POINT ENERGY      -857.719573111261
FINAL SINGLE POINT ENERGY      -857.720218057625
FINAL SINGLE POINT ENERGY      -857.720552056409
FINAL SINGLE POINT ENERGY      -857.720624388583
FINAL SINGLE POINT ENERGY      -857.720656224961
FINAL SINGLE POINT ENERGY      -857.720676466386
FINAL SINGLE POINT ENERGY      -857.720666993230
Dispersion correction            ... done
Dispersion correction           -0.005580372
FINAL SINGLE POINT ENERGY      -857.720670964381
Dispersion correction            ... done
Dispersion correction           -0.005580237
FINAL SINGLE POINT ENERGY      -857.720668312875
Dispersion correction            ... done
                    ***********************HURRAY********************

CARTESIAN COORDINATES (ANGSTROEM)
---------------------------------
  C     -0.066274    6.436799    3.580648
  S      1.457247    6.124349    2.688751
  C      1.132905    4.657248    1.790787
  C     -0.089909    3.986542    1.809539
  C     -0.251710    2.826766    1.074735
  C      0.799696    2.324631    0.317033
  C      2.021846    2.995875    0.290042
  C      2.186903    4.151481    1.019387
  C      0.630578    1.089160   -0.439633
  O     -0.417380    0.400831   -0.500101
  O      1.512288    0.530488   -1.136625
  H      0.117501    7.340649    4.161526
  H     -0.303876    5.624309    4.266481
  H     -0.899247    6.621569    2.903471
  H     -0.920187    4.357814    2.394137
  H     -1.203568    2.308993    1.096116
  H      2.844128    2.609817   -0.300866
  H      3.139355    4.668647    0.998526

 Multiplicity           Mult            ....    2
 Number of Electrons    NEL             ....   87
 Basis Dimension        Dim             ....  389

ORBITAL ENERGIES
----------------
                 SPIN UP ORBITALS
  NO   OCC          E(Eh)            E(eV)
   0   1.0000     -88.959863     -2420.7209
   1   1.0000     -19.287539      -524.8406
   2   1.0000     -19.287476      -524.8389
   3   1.0000     -10.427354      -283.7427
   4   1.0000     -10.333738      -281.1953
   5   1.0000     -10.303581      -280.3747
   6   1.0000     -10.302213      -280.3375
   7   1.0000     -10.301295      -280.3125
   8   1.0000     -10.296820      -280.1907
   9   1.0000     -10.292384      -280.0700
  10   1.0000     -10.291640      -280.0497
  11   1.0000      -8.056855      -219.2382
  12   1.0000      -6.010744      -163.5606
  13   1.0000      -6.006635      -163.4488
  14   1.0000      -6.002243      -163.3293
  15   1.0000      -1.263636       -34.3853
  16   1.0000      -1.134613       -30.8744
  17   1.0000      -1.007284       -27.4096
  18   1.0000      -0.938868       -25.5479
  19   1.0000      -0.884645       -24.0724
  20   1.0000      -0.875651       -23.8277
  21   1.0000      -0.791545       -21.5390
  22   1.0000      -0.737871       -20.0785
  23   1.0000      -0.719842       -19.5879
  24   1.0000      -0.680156       -18.5080
  25   1.0000      -0.651246       -17.7213
  26   1.0000      -0.603341       -16.4177
  27   1.0000      -0.587081       -15.9753
  28   1.0000      -0.580638       -15.8000
  29   1.0000      -0.564363       -15.3571
  30   1.0000      -0.559734       -15.2311
  31   1.0000      -0.537346       -14.6219
  32   1.0000      -0.532535       -14.4910
  33   1.0000      -0.511567       -13.9204
  34   1.0000      -0.495731       -13.4895
  35   1.0000      -0.476949       -12.9784
  36   1.0000      -0.457098       -12.4383
  37   1.0000      -0.448120       -12.1940
  38   1.0000      -0.437178       -11.8962
  39   1.0000      -0.434292       -11.8177
  40   1.0000      -0.417972       -11.3736
  41   1.0000      -0.400001       -10.8846
  42   1.0000      -0.361107        -9.8262
  43   1.0000      -0.306106        -8.3296
  44   0.0000       0.005810         0.1581
  45   0.0000       0.050562         1.3759
  46   0.0000       0.106909         2.9091
  47   0.0000       0.126596         3.4448
  48   0.0000       0.137708         3.7472

                 SPIN DOWN ORBITALS
  NO   OCC          E(Eh)            E(eV)
   0   1.0000     -88.959871     -2420.7212
   1   1.0000     -19.275366      -524.5094
   2   1.0000     -19.275317      -524.5080
   3   1.0000     -10.428195      -283.7656
   4   1.0000     -10.333790      -281.1967
   5   1.0000     -10.303637      -280.3762
   6   1.0000     -10.302189      -280.3368
   7   1.0000     -10.301263      -280.3116
   8   1.0000     -10.296818      -280.1907
   9   1.0000     -10.292332      -280.0686
  10   1.0000     -10.291587      -280.0483
  11   1.0000      -8.056862      -219.2384
  12   1.0000      -6.010748      -163.5608
  13   1.0000      -6.006639      -163.4489
  14   1.0000      -6.002272      -163.3301
  15   1.0000      -1.234643       -33.5963
  16   1.0000      -1.095979       -29.8231
  17   1.0000      -1.006988       -27.4015
  18   1.0000      -0.938297       -25.5324
  19   1.0000      -0.884366       -24.0648
  20   1.0000      -0.874675       -23.8011
  21   1.0000      -0.790043       -21.4982
  22   1.0000      -0.736749       -20.0479
  23   1.0000      -0.717677       -19.5290
  24   1.0000      -0.677060       -18.4237
  25   1.0000      -0.617240       -16.7960
  26   1.0000      -0.594690       -16.1823
  27   1.0000      -0.579413       -15.7666
  28   1.0000      -0.569771       -15.5043
  29   1.0000      -0.556897       -15.1539
  30   1.0000      -0.554696       -15.0940
  31   1.0000      -0.535767       -14.5790
  32   1.0000      -0.532481       -14.4895
  33   1.0000      -0.503621       -13.7042
  34   1.0000      -0.494863       -13.4659
  35   1.0000      -0.469694       -12.7810
  36   1.0000      -0.451189       -12.2775
  37   1.0000      -0.418417       -11.3857
  38   1.0000      -0.414586       -11.2814
  39   1.0000      -0.399195       -10.8626
  40   1.0000      -0.397532       -10.8174
  41   1.0000      -0.361050        -9.8247
  42   1.0000      -0.305614        -8.3162
  43   0.0000      -0.095928        -2.6103
  44   0.0000       0.007858         0.2138
  45   0.0000       0.050439         1.3725
  46   0.0000       0.106932         2.9098
  47   0.0000       0.128017         3.4835

MULLIKEN ATOMIC CHARGES AND SPIN POPULATIONS
--------------------------------------------
   0 C :   -0.422294    0.000069
   1 S :   -0.037418   -0.001303
   2 C :    0.136235   -0.004618
   3 C :   -0.232264    0.000642
   4 C :   -0.233155    0.002561
   5 C :    0.026617   -0.002605
   6 C :   -0.225285    0.002386
   7 C :   -0.180602    0.001024
   8 C :    0.450138   -0.098610
   9 O :   -0.270607    0.549319
  10 O :   -0.270685    0.548789
  11 H :    0.189711   -0.000010
  12 H :    0.173800   -0.000053
  13 H :    0.173320   -0.000054
  14 H :    0.190346    0.000031
  15 H :    0.177879    0.001252
  16 H :    0.179488    0.001250
  17 H :    0.174775   -0.000070
Sum of atomic charges         :    0.0000000

LOEWDIN ATOMIC CHARGES AND SPIN POPULATIONS
-------------------------------------------
   0 C :   -0.501526   -0.000043
   1 S :    0.568882   -0.001434
   2 C :   -0.356778   -0.002763
   3 C :   -0.137304    0.001545
   4 C :   -0.071714    0.000589
   5 C :   -0.156505    0.000013
   6 C :   -0.076636    0.001026
   7 C :   -0.141317    0.001630
   8 C :   -0.514399    0.021799
   9 O :    0.182015    0.488272
  10 O :    0.182263    0.487747
  11 H :    0.127708    0.000006
  12 H :    0.119560   -0.000032
  13 H :    0.119107   -0.000033
  14 H :    0.162292   -0.000036
  15 H :    0.167246    0.000869
  16 H :    0.167174    0.000883
  17 H :    0.159934   -0.000040

  Mayer bond orders larger than 0.100000
B(  0-C ,  1-S ) :   1.0590 B(  0-C , 11-H ) :   0.9427 B(  0-C , 12-H ) :   0.9539
B(  0-C , 13-H ) :   0.9535 B(  1-S ,  2-C ) :   1.2118 B(  2-C ,  3-C ) :   1.2839
B(  2-C ,  7-C ) :   1.2708 B(  3-C ,  4-C ) :   1.4785 B(  3-C , 14-H ) :   0.9613
B(  4-C ,  5-C ) :   1.3282 B(  4-C , 15-H ) :   0.9608 B(  5-C ,  6-C ) :   1.2964
B(  5-C ,  8-C ) :   1.0234 B(  6-C ,  7-C ) :   1.5062 B(  6-C , 16-H ) :   0.9701
B(  7-C , 17-H ) :   0.9766 B(  8-C ,  9-O ) :   1.6163 B(  8-C , 10-O ) :   1.6171
B(  9-O , 10-O ) :   0.3919

Dispersion correction           -0.005580160
FINAL SINGLE POINT ENERGY      -857.720670169818

DIPOLE MOMENT
-------------
                                X             Y             Z
Electronic contribution:      2.56259      -6.28151      -5.48108
Nuclear contribution   :     -3.05910       8.23797       7.03089
                        -----------------------------------------
Total Dipole Moment    :     -0.49651       1.95646       1.54982
                        -----------------------------------------
Magnitude (a.u.)       :      2.54484
Magnitude (Debye)      :      6.46847

Rotational constants in cm-1:     0.107861     0.015108     0.013287
Rotational constants in MHz :  3233.577351   452.925725   398.345908

                             ****ORCA TERMINATED NORMALLY****
TOTAL RUN TIME: 0 days 0 hours 37 minutes 11 seconds 726 msec
