                         Program Version 5.0.3 -  RELEASE  -
|  1> ! UKS PBE0 def2-TZVP def2/J RIJCOSX D3BJ TIGHTSCF Opt CPCM PAL8
|  2> %maxcore 5000
|  3> %cpcm
|  4> smd true
|  5> SMDsolvent "DMF"
|  6> end
|  7> * xyz 0 2
|  8>  C -0.07425707479814 6.45007760366319 3.54636897867849
|  9>  S 1.48979584793712 6.08048225687873 2.75598260255209
| 10>  C 1.14936654141856 4.63662227087222 1.83369205968326
| 11>  C -0.09136557109480 4.00305286554088 1.79338352444578
| 12>  C -0.25826928718407 2.84269542505768 1.05936282240646
| 13>  C 0.80050967676942 2.30271389692801 0.33923873907232
| 14>  C 2.02875697338567 2.96040825022008 0.34201900047512
| 15>  C 2.20764771123846 4.10330343094754 1.09121055149825
| 16>  C 0.66254428710301 1.09941809961861 -0.50690159852297
| 17>  O 0.00000000000000 0.00000000000000 0.00000000000000
| 18>  O 1.06713866538631 0.98717129960580 -1.62357736506780
| 19>  H 0.10416325535368 7.34607684664392 4.14087383255362
| 20>  H -0.38882275224257 5.64387294862163 4.21002028523424
| 21>  H -0.85323854703301 6.66443357654391 2.81385647784552
| 22>  H -0.93700004363157 4.40513362395569 2.33421606140266
| 23>  H -1.23507439683237 2.37497021944690 1.02749021968162
| 24>  H 2.84544686618639 2.55882587909200 -0.24576673820719
| 25>  H 3.17295340310622 4.59670965109571 1.10248346369500
| 26> *
| 27>
| 28>                          ****END OF INPUT****
 Total Charge           Charge          ....    0
 Multiplicity           Mult            ....    2
 Number of Electrons    NEL             ....   87
Dispersion correction           -0.018780886
FINAL SINGLE POINT ENERGY      -857.205657949605
Dispersion correction            ... done
Dispersion correction           -0.018819676
FINAL SINGLE POINT ENERGY      -857.211754020139
Dispersion correction            ... done
Dispersion correction           -0.018882568
FINAL SINGLE POINT ENERGY      -857.212731753995
Dispersion correction            ... done
FINAL SINGLE POINT ENERGY      -857.215951302067
FINAL SINGLE POINT ENERGY      -857.216864994829
FINAL SINGLE POINT ENERGY      -857.218552681500
FINAL SINGLE POINT ENERGY      -857.218849468528
FINAL SINGLE POINT ENERGY      -857.219005037977
FINAL SINGLE POINT ENERGY      -857.219048331255
FINAL SINGLE POINT ENERGY      -857.219146391851
FINAL SINGLE POINT ENERGY      -857.219165088533
FINAL SINGLE POINT ENERGY      -857.219201192885
FINAL SINGLE POINT ENERGY      -857.219297686957
FINAL SINGLE POINT ENERGY      -857.219368980460
Dispersion correction            ... done
Dispersion correction           -0.018886060
FINAL SINGLE POINT ENERGY      -857.219440901750
Dispersion correction            ... done
Dispersion correction           -0.018884039
FINAL SINGLE POINT ENERGY      -857.219464041503
Dispersion correction            ... done
                    ***********************HURRAY********************

CARTESIAN COORDINATES (ANGSTROEM)
---------------------------------
  C     -0.084947    6.458466    3.515389
  S      1.467581    6.014001    2.754367
  C      1.140489    4.600464    1.850177
  C     -0.125242    3.990642    1.767485
  C     -0.282044    2.858830    1.010910
  C      0.800027    2.322847    0.289368
  C      2.072756    2.909726    0.408919
  C      2.241329    4.036930    1.163601
  C      0.602841    1.112443   -0.562521
  O      0.727736    0.101641    0.179585
  O      0.368285    1.159916   -1.762899
  H      0.122827    7.364100    4.086608
  H     -0.424419    5.675085    4.193371
  H     -0.841514    6.675303    2.761015
  H     -0.973159    4.407648    2.293876
  H     -1.254185    2.383219    0.948705
  H      2.915242    2.478770   -0.119695
  H      3.216692    4.505939    1.235692

 Multiplicity           Mult            ....    2
 Number of Electrons    NEL             ....   87
 Basis Dimension        Dim             ....  389

ORBITAL ENERGIES
----------------
                 SPIN UP ORBITALS
  NO   OCC          E(Eh)            E(eV)
   0   1.0000     -89.073101     -2423.8023
   1   1.0000     -19.202657      -522.5309
   2   1.0000     -19.164932      -521.5043
   3   1.0000     -10.321671      -280.8669
   4   1.0000     -10.299102      -280.2528
   5   1.0000     -10.268296      -279.4145
   6   1.0000     -10.255926      -279.0779
   7   1.0000     -10.255658      -279.0707
   8   1.0000     -10.253586      -279.0143
   9   1.0000     -10.252783      -278.9924
  10   1.0000     -10.250675      -278.9350
  11   1.0000      -8.050975      -219.0782
  12   1.0000      -5.986419      -162.8988
  13   1.0000      -5.983785      -162.8271
  14   1.0000      -5.982511      -162.7924
  15   1.0000      -1.093915       -29.7669
  16   1.0000      -1.003822       -27.3154
  17   1.0000      -0.926959       -25.2238
  18   1.0000      -0.864335       -23.5197
  19   1.0000      -0.802456       -21.8359
  20   1.0000      -0.789023       -21.4704
  21   1.0000      -0.706661       -19.2292
  22   1.0000      -0.654489       -17.8096
  23   1.0000      -0.631402       -17.1813
  24   1.0000      -0.585142       -15.9225
  25   1.0000      -0.517560       -14.0835
  26   1.0000      -0.513666       -13.9776
  27   1.0000      -0.488320       -13.2879
  28   1.0000      -0.474498       -12.9117
  29   1.0000      -0.465148       -12.6573
  30   1.0000      -0.460067       -12.5191
  31   1.0000      -0.456086       -12.4107
  32   1.0000      -0.434815       -11.8319
  33   1.0000      -0.425978       -11.5915
  34   1.0000      -0.420681       -11.4473
  35   1.0000      -0.406799       -11.0696
  36   1.0000      -0.378875       -10.3097
  37   1.0000      -0.359813        -9.7910
  38   1.0000      -0.348453        -9.4819
  39   1.0000      -0.305531        -8.3139
  40   1.0000      -0.301969        -8.2170
  41   1.0000      -0.292359        -7.9555
  42   1.0000      -0.274204        -7.4615
  43   1.0000      -0.248043        -6.7496
  44   0.0000      -0.039102        -1.0640
  45   0.0000      -0.028990        -0.7889
  46   0.0000       0.020299         0.5524
  47   0.0000       0.048861         1.3296
  48   0.0000       0.057694         1.5699

                 SPIN DOWN ORBITALS
  NO   OCC          E(Eh)            E(eV)
   0   1.0000     -89.071274     -2423.7526
   1   1.0000     -19.192273      -522.2483
   2   1.0000     -19.164128      -521.4824
   3   1.0000     -10.322024      -280.8766
   4   1.0000     -10.296922      -280.1935
   5   1.0000     -10.265179      -279.3297
   6   1.0000     -10.256047      -279.0812
   7   1.0000     -10.255052      -279.0541
   8   1.0000     -10.253098      -279.0010
   9   1.0000     -10.252380      -278.9814
  10   1.0000     -10.250514      -278.9307
  11   1.0000      -8.049270      -219.0318
  12   1.0000      -5.985357      -162.8699
  13   1.0000      -5.981570      -162.7668
  14   1.0000      -5.977800      -162.6642
  15   1.0000      -1.082939       -29.4683
  16   1.0000      -0.991533       -26.9810
  17   1.0000      -0.921638       -25.0790
  18   1.0000      -0.857779       -23.3414
  19   1.0000      -0.800934       -21.7945
  20   1.0000      -0.782255       -21.2862
  21   1.0000      -0.703535       -19.1442
  22   1.0000      -0.651187       -17.7197
  23   1.0000      -0.625346       -17.0165
  24   1.0000      -0.581127       -15.8133
  25   1.0000      -0.512666       -13.9504
  26   1.0000      -0.512005       -13.9324
  27   1.0000      -0.481804       -13.1106
  28   1.0000      -0.470637       -12.8067
  29   1.0000      -0.458843       -12.4857
  30   1.0000      -0.458113       -12.4659
  31   1.0000      -0.447512       -12.1774
  32   1.0000      -0.432203       -11.7608
  33   1.0000      -0.422763       -11.5040
  34   1.0000      -0.409719       -11.1490
  35   1.0000      -0.403972       -10.9926
  36   1.0000      -0.376505       -10.2452
  37   1.0000      -0.356028        -9.6880
  38   1.0000      -0.324573        -8.8321
  39   1.0000      -0.298215        -8.1148
  40   1.0000      -0.287361        -7.8195
  41   1.0000      -0.266356        -7.2479
  42   1.0000      -0.246600        -6.7103
  43   0.0000      -0.169467        -4.6114
  44   0.0000      -0.022123        -0.6020
  45   0.0000      -0.018166        -0.4943
  46   0.0000       0.022558         0.6138
  47   0.0000       0.050494         1.3740

MULLIKEN ATOMIC CHARGES AND SPIN POPULATIONS
--------------------------------------------
   0 C :   -0.416306   -0.011430
   1 S :    0.084009    0.269342
   2 C :    0.184457    0.123427
   3 C :   -0.197635    0.006172
   4 C :   -0.212507    0.045726
   5 C :    0.162295    0.162173
   6 C :   -0.214690    0.009591
   7 C :   -0.159530    0.032290
   8 C :    0.254569   -0.037961
   9 O :   -0.364876    0.358284
  10 O :   -0.432492    0.029250
  11 H :    0.203447   -0.000338
  12 H :    0.194921    0.010314
  13 H :    0.194541    0.010076
  14 H :    0.185811   -0.001382
  15 H :    0.179569   -0.002369
  16 H :    0.178442   -0.000776
  17 H :    0.175974   -0.002387
Sum of atomic charges         :    0.0000000

LOEWDIN ATOMIC CHARGES AND SPIN POPULATIONS
-------------------------------------------
   0 C :   -0.479063    0.012223
   1 S :    0.734365    0.243169
   2 C :   -0.359561    0.101431
   3 C :   -0.111184    0.029640
   4 C :   -0.068241    0.047812
   5 C :   -0.057710    0.133149
   6 C :   -0.077713    0.026649
   7 C :   -0.113832    0.039641
   8 C :   -0.642518    0.004889
   9 O :    0.078330    0.324104
  10 O :    0.015552    0.025067
  11 H :    0.136720   -0.000256
  12 H :    0.133265    0.006441
  13 H :    0.133278    0.006529
  14 H :    0.168737   -0.000085
  15 H :    0.171724   -0.000112
  16 H :    0.171439   -0.000047
  17 H :    0.166413   -0.000245

  Mayer bond orders larger than 0.100000
B(  0-C ,  1-S ) :   1.0479 B(  0-C , 11-H ) :   0.9299 B(  0-C , 12-H ) :   0.9382
B(  0-C , 13-H ) :   0.9371 B(  1-S ,  2-C ) :   1.3006 B(  2-C ,  3-C ) :   1.2157
B(  2-C ,  7-C ) :   1.1892 B(  3-C ,  4-C ) :   1.5219 B(  3-C , 14-H ) :   0.9513
B(  4-C ,  5-C ) :   1.2561 B(  4-C , 15-H ) :   0.9622 B(  5-C ,  6-C ) :   1.2488
B(  5-C ,  8-C ) :   0.8669 B(  5-C ,  9-O ) :   0.1029 B(  6-C ,  7-C ) :   1.5495
B(  6-C , 16-H ) :   0.9702 B(  7-C , 17-H ) :   0.9629 B(  8-C ,  9-O ) :   1.6128
B(  8-C , 10-O ) :   1.9782

Dispersion correction           -0.018884050
FINAL SINGLE POINT ENERGY      -857.219466600269

DIPOLE MOMENT
-------------
                                X             Y             Z
Electronic contribution:      2.90651      -3.50222      -3.23427
Nuclear contribution   :     -3.08499       8.22403       6.80555
                        -----------------------------------------
Total Dipole Moment    :     -0.17848       4.72180       3.57128
                        -----------------------------------------
Magnitude (a.u.)       :      5.92295
Magnitude (Debye)      :     15.05494

Rotational constants in cm-1:     0.103163     0.015160     0.014128
Rotational constants in MHz :  3092.751396   454.494929   423.557009

                             ****ORCA TERMINATED NORMALLY****
TOTAL RUN TIME: 0 days 2 hours 27 minutes 0 seconds 244 msec
