                         Program Version 5.0.3 -  RELEASE  -
|  1> ! UKS PBE0 def2-TZVP def2/J RIJCOSX D3BJ TIGHTSCF Opt CPCM PAL8
|  2> %maxcore 5000
|  3> %cpcm
|  4> smd true
|  5> SMDsolvent "N-METHYLFORMAMIDE"
|  6> end
|  7> * xyz 0 1
|  8>  C -0.07425707479814 6.45007760366319 3.54636897867849
|  9>  S 1.48979584793712 6.08048225687873 2.75598260255209
| 10>  C 1.14936654141856 4.63662227087222 1.83369205968326
| 11>  C -0.09136557109480 4.00305286554088 1.79338352444578
| 12>  C -0.25826928718407 2.84269542505768 1.05936282240646
| 13>  C 0.80050967676942 2.30271389692801 0.33923873907232
| 14>  C 2.02875697338567 2.96040825022008 0.34201900047512
| 15>  C 2.20764771123846 4.10330343094754 1.09121055149825
| 16>  C 0.66254428710301 1.09941809961861 -0.50690159852297
| 17>  O 0.00000000000000 0.00000000000000 0.00000000000000
| 18>  O 1.06713866538631 0.98717129960580 -1.62357736506780
| 19>  O 0.00000000000000 0.00000000000000 1.41527284498687
| 20>  C -1.27388770944479 0.00000000000000 1.91590645535523
| 21>  C -1.22211457253867 0.06642777988277 3.38831477989974
| 22>  O -2.25742922897412 -0.02585779042736 1.23875652957256
| 23>  C -2.41543940252313 -0.12289611375011 4.08595252694906
| 24>  C -2.44195923478874 -0.03437680070658 5.45887710053507
| 25>  C -1.27275068522395 0.25496212808386 6.17298493884884
| 26>  C -0.08177795586127 0.45060655108151 5.47518008098465
| 27>  C -0.05890441770979 0.35440376081578 4.09544628781756
| 28>  S -1.42666733932306 0.34986111841343 7.90788531117200
| 29>  C 0.24316058065577 0.68495422113854 8.46194522255982
| 30>  H 0.10416325535368 7.34607684664392 4.14087383255362
| 31>  H -0.38882275224257 5.64387294862163 4.21002028523424
| 32>  H -0.85323854703301 6.66443357654391 2.81385647784552
| 33>  H -0.93700004363157 4.40513362395569 2.33421606140266
| 34>  H -1.23507439683237 2.37497021944690 1.02749021968162
| 35>  H 2.84544686618639 2.55882587909200 -0.24576673820719
| 36>  H 3.17295340310622 4.59670965109571 1.10248346369500
| 37>  H -3.31769085302541 -0.33900022625314 3.52707230389961
| 38>  H -3.37188538809726 -0.18808364875198 5.99464715790180
| 39>  H 0.83479761044422 0.68252071425859 5.99988733430662
| 40>  H 0.87046926144621 0.51883617942438 3.56602510045047
| 41>  H 0.18454114424639 0.73729393679500 9.54909076814075
| 42>  H 0.60864534290486 1.64029462399245 8.08374213903351
| 43>  H 0.92507514742305 -0.11949528816653 8.18458994466104
| 44> *
| 45>
| 46>                          ****END OF INPUT****
 Total Charge           Charge          ....    0
 Multiplicity           Mult            ....    1
 Number of Electrons    NEL             ....  174
Dispersion correction           -0.043892970
FINAL SINGLE POINT ENERGY     -1714.459924190206
Dispersion correction            ... done
Dispersion correction           -0.043280481
FINAL SINGLE POINT ENERGY     -1714.460223215831
Dispersion correction            ... done
Dispersion correction           -0.043932542
FINAL SINGLE POINT ENERGY     -1714.460236936186
Dispersion correction            ... done
FINAL SINGLE POINT ENERGY     -1714.460848822654
FINAL SINGLE POINT ENERGY     -1714.460849746821
FINAL SINGLE POINT ENERGY     -1714.460903933204
FINAL SINGLE POINT ENERGY     -1714.460906247630
FINAL SINGLE POINT ENERGY     -1714.460911188734
FINAL SINGLE POINT ENERGY     -1714.460887528939
Dispersion correction            ... done
Dispersion correction           -0.043978703
FINAL SINGLE POINT ENERGY     -1714.460901154753
Dispersion correction            ... done
Dispersion correction           -0.043985800
FINAL SINGLE POINT ENERGY     -1714.460901471342
Dispersion correction            ... done
                    ***********************HURRAY********************

CARTESIAN COORDINATES (ANGSTROEM)
---------------------------------
  C      0.137433    6.316342    3.770111
  S      1.608931    6.035825    2.788645
  C      1.218387    4.619771    1.846939
  C     -0.013949    3.967320    1.903636
  C     -0.231793    2.829487    1.151363
  C      0.764376    2.333759    0.314581
  C      1.981512    3.010384    0.223870
  C      2.212723    4.131171    0.991095
  C      0.572424    1.157526   -0.540071
  O     -0.047142    0.035984   -0.037468
  O      0.904044    1.060580   -1.691412
  O     -0.021371    0.008740    1.375736
  C     -1.281310   -0.141299    1.889826
  C     -1.241596   -0.034539    3.350151
  O     -2.249348   -0.327138    1.203454
  C     -2.387069   -0.396685    4.063442
  C     -2.420557   -0.274533    5.432932
  C     -1.308487    0.222346    6.127092
  C     -0.163985    0.584830    5.414513
  C     -0.133105    0.455410    4.039173
  S     -1.459972    0.352891    7.857941
  C      0.118326    1.015386    8.382313
  H      0.358894    7.192338    4.381896
  H     -0.070926    5.472179    4.428520
  H     -0.727978    6.536021    3.144150
  H     -0.811061    4.336853    2.534299
  H     -1.203275    2.352344    1.196172
  H      2.755997    2.636790   -0.436052
  H      3.172580    4.632764    0.931127
  H     -3.251347   -0.775649    3.531269
  H     -3.314989   -0.561290    5.975403
  H      0.707018    0.975714    5.922948
  H      0.758645    0.755454    3.503696
  H      0.047284    1.110364    9.467091
  H      0.299625    2.001994    7.954902
  H      0.937541    0.336987    8.142244

 Multiplicity           Mult            ....    1
 Number of Electrons    NEL             ....  174
 Basis Dimension        Dim             ....  778

ORBITAL ENERGIES
----------------
                 SPIN UP ORBITALS
  NO   OCC          E(Eh)            E(eV)
   0   1.0000     -89.035000     -2422.7655
   1   1.0000     -89.033405     -2422.7221
   2   1.0000     -19.326911      -525.9120
   3   1.0000     -19.325804      -525.8819
   4   1.0000     -19.221642      -523.0475
   5   1.0000     -19.216390      -522.9046
   6   1.0000     -10.379053      -282.4284
   7   1.0000     -10.373883      -282.2877
   8   1.0000     -10.277848      -279.6745
   9   1.0000     -10.275823      -279.6194
  10   1.0000     -10.252332      -278.9801
  11   1.0000     -10.251049      -278.9452
  12   1.0000     -10.245857      -278.8040
  13   1.0000     -10.245407      -278.7917
  14   1.0000     -10.244076      -278.7555
  15   1.0000     -10.243538      -278.7408
  16   1.0000     -10.242701      -278.7181
  17   1.0000     -10.242257      -278.7060
  18   1.0000     -10.237729      -278.5828
  19   1.0000     -10.237138      -278.5667
  20   1.0000     -10.236510      -278.5496
  21   1.0000     -10.236268      -278.5430
  22   1.0000      -8.013749      -218.0652
  23   1.0000      -8.012156      -218.0218
  24   1.0000      -5.950210      -161.9134
  25   1.0000      -5.948645      -161.8709
  26   1.0000      -5.946530      -161.8133
  27   1.0000      -5.944985      -161.7713
  28   1.0000      -5.942831      -161.7126
  29   1.0000      -5.941166      -161.6674
  30   1.0000      -1.242636       -33.8138
  31   1.0000      -1.129404       -30.7327
  32   1.0000      -1.095659       -29.8144
  33   1.0000      -0.999162       -27.1886
  34   1.0000      -0.911902       -24.8141
  35   1.0000      -0.910729       -24.7822
  36   1.0000      -0.845227       -22.9998
  37   1.0000      -0.843376       -22.9494
  38   1.0000      -0.790778       -21.5182
  39   1.0000      -0.788542       -21.4573
  40   1.0000      -0.783012       -21.3068
  41   1.0000      -0.780492       -21.2383
  42   1.0000      -0.714443       -19.4410
  43   1.0000      -0.698172       -18.9982
  44   1.0000      -0.666292       -18.1307
  45   1.0000      -0.646769       -17.5995
  46   1.0000      -0.645033       -17.5522
  47   1.0000      -0.630633       -17.1604
  48   1.0000      -0.608664       -16.5626
  49   1.0000      -0.595673       -16.2091
  50   1.0000      -0.575302       -15.6548
  51   1.0000      -0.567991       -15.4558
  52   1.0000      -0.534736       -14.5509
  53   1.0000      -0.516420       -14.0525
  54   1.0000      -0.503309       -13.6957
  55   1.0000      -0.499510       -13.5924
  56   1.0000      -0.488424       -13.2907
  57   1.0000      -0.484308       -13.1787
  58   1.0000      -0.481477       -13.1017
  59   1.0000      -0.468283       -12.7426
  60   1.0000      -0.465473       -12.6662
  61   1.0000      -0.456190       -12.4136
  62   1.0000      -0.450367       -12.2551
  63   1.0000      -0.446100       -12.1390
  64   1.0000      -0.445293       -12.1170
  65   1.0000      -0.444543       -12.0966
  66   1.0000      -0.435756       -11.8575
  67   1.0000      -0.419606       -11.4180
  68   1.0000      -0.415529       -11.3071
  69   1.0000      -0.406687       -11.0665
  70   1.0000      -0.404432       -11.0052
  71   1.0000      -0.389801       -10.6070
  72   1.0000      -0.386649       -10.5213
  73   1.0000      -0.377163       -10.2631
  74   1.0000      -0.369263       -10.0482
  75   1.0000      -0.367867       -10.0102
  76   1.0000      -0.341609        -9.2957
  77   1.0000      -0.339861        -9.2481
  78   1.0000      -0.339152        -9.2288
  79   1.0000      -0.330123        -8.9831
  80   1.0000      -0.324521        -8.8307
  81   1.0000      -0.316274        -8.6063
  82   1.0000      -0.311308        -8.4711
  83   1.0000      -0.286352        -7.7920
  84   1.0000      -0.282282        -7.6813
  85   1.0000      -0.233548        -6.3552
  86   1.0000      -0.231656        -6.3037
  87   0.0000      -0.064714        -1.7610
  88   0.0000      -0.053858        -1.4655
  89   0.0000      -0.020555        -0.5593
  90   0.0000      -0.017650        -0.4803
  91   0.0000      -0.003241        -0.0882

                 SPIN DOWN ORBITALS
  NO   OCC          E(Eh)            E(eV)
   0   1.0000     -89.035000     -2422.7655
   1   1.0000     -89.033405     -2422.7221
   2   1.0000     -19.326911      -525.9120
   3   1.0000     -19.325804      -525.8819
   4   1.0000     -19.221642      -523.0475
   5   1.0000     -19.216390      -522.9046
   6   1.0000     -10.379053      -282.4284
   7   1.0000     -10.373883      -282.2877
   8   1.0000     -10.277848      -279.6745
   9   1.0000     -10.275823      -279.6194
  10   1.0000     -10.252332      -278.9801
  11   1.0000     -10.251049      -278.9452
  12   1.0000     -10.245857      -278.8040
  13   1.0000     -10.245407      -278.7917
  14   1.0000     -10.244076      -278.7555
  15   1.0000     -10.243538      -278.7408
  16   1.0000     -10.242701      -278.7181
  17   1.0000     -10.242257      -278.7060
  18   1.0000     -10.237729      -278.5828
  19   1.0000     -10.237138      -278.5667
  20   1.0000     -10.236510      -278.5496
  21   1.0000     -10.236268      -278.5430
  22   1.0000      -8.013749      -218.0652
  23   1.0000      -8.012156      -218.0218
  24   1.0000      -5.950210      -161.9134
  25   1.0000      -5.948645      -161.8709
  26   1.0000      -5.946530      -161.8133
  27   1.0000      -5.944985      -161.7713
  28   1.0000      -5.942831      -161.7126
  29   1.0000      -5.941166      -161.6674
  30   1.0000      -1.242636       -33.8138
  31   1.0000      -1.129404       -30.7327
  32   1.0000      -1.095659       -29.8144
  33   1.0000      -0.999162       -27.1886
  34   1.0000      -0.911902       -24.8141
  35   1.0000      -0.910729       -24.7822
  36   1.0000      -0.845227       -22.9998
  37   1.0000      -0.843376       -22.9494
  38   1.0000      -0.790778       -21.5182
  39   1.0000      -0.788542       -21.4573
  40   1.0000      -0.783012       -21.3068
  41   1.0000      -0.780492       -21.2383
  42   1.0000      -0.714443       -19.4410
  43   1.0000      -0.698172       -18.9982
  44   1.0000      -0.666292       -18.1307
  45   1.0000      -0.646769       -17.5995
  46   1.0000      -0.645033       -17.5522
  47   1.0000      -0.630633       -17.1604
  48   1.0000      -0.608664       -16.5626
  49   1.0000      -0.595673       -16.2091
  50   1.0000      -0.575302       -15.6548
  51   1.0000      -0.567991       -15.4558
  52   1.0000      -0.534736       -14.5509
  53   1.0000      -0.516420       -14.0525
  54   1.0000      -0.503309       -13.6957
  55   1.0000      -0.499510       -13.5924
  56   1.0000      -0.488424       -13.2907
  57   1.0000      -0.484308       -13.1787
  58   1.0000      -0.481477       -13.1017
  59   1.0000      -0.468283       -12.7426
  60   1.0000      -0.465473       -12.6662
  61   1.0000      -0.456190       -12.4136
  62   1.0000      -0.450367       -12.2551
  63   1.0000      -0.446100       -12.1390
  64   1.0000      -0.445293       -12.1170
  65   1.0000      -0.444543       -12.0966
  66   1.0000      -0.435756       -11.8575
  67   1.0000      -0.419606       -11.4180
  68   1.0000      -0.415529       -11.3071
  69   1.0000      -0.406687       -11.0665
  70   1.0000      -0.404432       -11.0052
  71   1.0000      -0.389801       -10.6070
  72   1.0000      -0.386649       -10.5213
  73   1.0000      -0.377163       -10.2631
  74   1.0000      -0.369263       -10.0482
  75   1.0000      -0.367867       -10.0102
  76   1.0000      -0.341609        -9.2957
  77   1.0000      -0.339861        -9.2481
  78   1.0000      -0.339152        -9.2288
  79   1.0000      -0.330123        -8.9831
  80   1.0000      -0.324521        -8.8307
  81   1.0000      -0.316274        -8.6063
  82   1.0000      -0.311308        -8.4711
  83   1.0000      -0.286352        -7.7920
  84   1.0000      -0.282282        -7.6813
  85   1.0000      -0.233548        -6.3552
  86   1.0000      -0.231656        -6.3037
  87   0.0000      -0.064714        -1.7610
  88   0.0000      -0.053858        -1.4655
  89   0.0000      -0.020555        -0.5593
  90   0.0000      -0.017650        -0.4803
  91   0.0000      -0.003241        -0.0882

MULLIKEN ATOMIC CHARGES AND SPIN POPULATIONS
--------------------------------------------
   0 C :   -0.420398    0.000000
   1 S :   -0.056204    0.000000
   2 C :    0.161312    0.000000
   3 C :   -0.225434    0.000000
   4 C :   -0.242247    0.000000
   5 C :    0.130710    0.000000
   6 C :   -0.258618    0.000000
   7 C :   -0.189852    0.000000
   8 C :    0.336335    0.000000
   9 O :   -0.099019    0.000000
  10 O :   -0.369596    0.000000
  11 O :   -0.110417    0.000000
  12 C :    0.361732    0.000000
  13 C :    0.103237    0.000000
  14 O :   -0.391916    0.000000
  15 C :   -0.235771    0.000000
  16 C :   -0.186708    0.000000
  17 C :    0.166839    0.000000
  18 C :   -0.231244    0.000000
  19 C :   -0.231216    0.000000
  20 S :   -0.049388    0.000000
  21 C :   -0.419892    0.000000
  22 H :    0.191316    0.000000
  23 H :    0.176974    0.000000
  24 H :    0.176628    0.000000
  25 H :    0.173933    0.000000
  26 H :    0.180290    0.000000
  27 H :    0.171412    0.000000
  28 H :    0.162542    0.000000
  29 H :    0.165121    0.000000
  30 H :    0.162385    0.000000
  31 H :    0.174258    0.000000
  32 H :    0.176364    0.000000
  33 H :    0.192010    0.000000
  34 H :    0.177268    0.000000
  35 H :    0.177252    0.000000
Sum of atomic charges         :    0.0000000

LOEWDIN ATOMIC CHARGES AND SPIN POPULATIONS
-------------------------------------------
   0 C :   -0.505502    0.000000
   1 S :    0.578352    0.000000
   2 C :   -0.370822    0.000000
   3 C :   -0.139037    0.000000
   4 C :   -0.085817    0.000000
   5 C :   -0.155588    0.000000
   6 C :   -0.084762    0.000000
   7 C :   -0.142948    0.000000
   8 C :   -0.432094    0.000000
   9 O :    0.211839    0.000000
  10 O :    0.096608    0.000000
  11 O :    0.219379    0.000000
  12 C :   -0.459595    0.000000
  13 C :   -0.150399    0.000000
  14 O :    0.082850    0.000000
  15 C :   -0.080148    0.000000
  16 C :   -0.142640    0.000000
  17 C :   -0.368388    0.000000
  18 C :   -0.139220    0.000000
  19 C :   -0.084446    0.000000
  20 S :    0.585733    0.000000
  21 C :   -0.504403    0.000000
  22 H :    0.130020    0.000000
  23 H :    0.122298    0.000000
  24 H :    0.121863    0.000000
  25 H :    0.164147    0.000000
  26 H :    0.169860    0.000000
  27 H :    0.168383    0.000000
  28 H :    0.160598    0.000000
  29 H :    0.167019    0.000000
  30 H :    0.160748    0.000000
  31 H :    0.163552    0.000000
  32 H :    0.167058    0.000000
  33 H :    0.130387    0.000000
  34 H :    0.122569    0.000000
  35 H :    0.122549    0.000000

  Mayer bond orders larger than 0.100000
B(  0-C ,  1-S ) :   1.0629 B(  0-C , 22-H ) :   0.9361 B(  0-C , 23-H ) :   0.9483
B(  0-C , 24-H ) :   0.9465 B(  1-S ,  2-C ) :   1.1886 B(  2-C ,  3-C ) :   1.2762
B(  2-C ,  7-C ) :   1.2729 B(  3-C ,  4-C ) :   1.4523 B(  3-C , 25-H ) :   0.9605
B(  4-C ,  5-C ) :   1.3126 B(  4-C , 26-H ) :   0.9419 B(  5-C ,  6-C ) :   1.3032
B(  5-C ,  8-C ) :   0.9754 B(  6-C ,  7-C ) :   1.4803 B(  6-C , 27-H ) :   0.9744
B(  7-C , 28-H ) :   0.9749 B(  8-C ,  9-O ) :   1.1142 B(  8-C , 10-O ) :   2.0555
B(  9-O , 11-O ) :   0.8161 B( 11-O , 12-C ) :   1.1038 B( 12-C , 13-C ) :   1.0103
B( 12-C , 14-O ) :   1.9823 B( 13-C , 15-C ) :   1.2836 B( 13-C , 19-C ) :   1.3186
B( 15-C , 16-C ) :   1.4966 B( 15-C , 29-H ) :   0.9715 B( 16-C , 17-C ) :   1.2584
B( 16-C , 30-H ) :   0.9758 B( 17-C , 18-C ) :   1.2792 B( 17-C , 20-S ) :   1.2002
B( 18-C , 19-C ) :   1.4461 B( 18-C , 31-H ) :   0.9599 B( 19-C , 32-H ) :   0.9618
B( 20-S , 21-C ) :   1.0631 B( 21-C , 33-H ) :   0.9356 B( 21-C , 34-H ) :   0.9475
B( 21-C , 35-H ) :   0.9473

Dispersion correction           -0.043990283
FINAL SINGLE POINT ENERGY     -1714.460900390642

DIPOLE MOMENT
-------------
                                X             Y             Z
Electronic contribution:     -0.73718      -8.42870     -13.13529
Nuclear contribution   :      1.39536      10.48377      17.46911
                        -----------------------------------------
Total Dipole Moment    :      0.65819       2.05507       4.33381
                        -----------------------------------------
Magnitude (a.u.)       :      4.84133
Magnitude (Debye)      :     12.30568

Rotational constants in cm-1:     0.008926     0.005232     0.003586
Rotational constants in MHz :   267.581464   156.839414   107.506516

                             ****ORCA TERMINATED NORMALLY****
TOTAL RUN TIME: 0 days 0 hours 47 minutes 19 seconds 819 msec
