                         Program Version 5.0.3 -  RELEASE  -
|  1> ! UKS wB97X-D3 def2-TZVP TIGHTSCF Opt CPCM PAL8
|  2> %maxcore 5000
|  3> %cpcm
|  4> smd true
|  5> SMDsolvent "N-METHYLFORMAMIDE"
|  6> end
|  7> * xyz 0 1
|  8>  C -0.07425707479814 6.45007760366319 3.54636897867849
|  9>  S 1.48979584793712 6.08048225687873 2.75598260255209
| 10>  C 1.14936654141856 4.63662227087222 1.83369205968326
| 11>  C -0.09136557109480 4.00305286554088 1.79338352444578
| 12>  C -0.25826928718407 2.84269542505768 1.05936282240646
| 13>  C 0.80050967676942 2.30271389692801 0.33923873907232
| 14>  C 2.02875697338567 2.96040825022008 0.34201900047512
| 15>  C 2.20764771123846 4.10330343094754 1.09121055149825
| 16>  C 0.66254428710301 1.09941809961861 -0.50690159852297
| 17>  O 0.00000000000000 0.00000000000000 0.00000000000000
| 18>  O 1.06713866538631 0.98717129960580 -1.62357736506780
| 19>  O 0.00000000000000 0.00000000000000 1.41527284498687
| 20>  C -1.27388770944479 0.00000000000000 1.91590645535523
| 21>  C -1.22211457253867 0.06642777988277 3.38831477989974
| 22>  O -2.25742922897412 -0.02585779042736 1.23875652957256
| 23>  C -2.41543940252313 -0.12289611375011 4.08595252694906
| 24>  C -2.44195923478874 -0.03437680070658 5.45887710053507
| 25>  C -1.27275068522395 0.25496212808386 6.17298493884884
| 26>  C -0.08177795586127 0.45060655108151 5.47518008098465
| 27>  C -0.05890441770979 0.35440376081578 4.09544628781756
| 28>  S -1.42666733932306 0.34986111841343 7.90788531117200
| 29>  C 0.24316058065577 0.68495422113854 8.46194522255982
| 30>  H 0.10416325535368 7.34607684664392 4.14087383255362
| 31>  H -0.38882275224257 5.64387294862163 4.21002028523424
| 32>  H -0.85323854703301 6.66443357654391 2.81385647784552
| 33>  H -0.93700004363157 4.40513362395569 2.33421606140266
| 34>  H -1.23507439683237 2.37497021944690 1.02749021968162
| 35>  H 2.84544686618639 2.55882587909200 -0.24576673820719
| 36>  H 3.17295340310622 4.59670965109571 1.10248346369500
| 37>  H -3.31769085302541 -0.33900022625314 3.52707230389961
| 38>  H -3.37188538809726 -0.18808364875198 5.99464715790180
| 39>  H 0.83479761044422 0.68252071425859 5.99988733430662
| 40>  H 0.87046926144621 0.51883617942438 3.56602510045047
| 41>  H 0.18454114424639 0.73729393679500 9.54909076814075
| 42>  H 0.60864534290486 1.64029462399245 8.08374213903351
| 43>  H 0.92507514742305 -0.11949528816653 8.18458994466104
| 44> *
| 45>
| 46>                          ****END OF INPUT****
 Total Charge           Charge          ....    0
 Multiplicity           Mult            ....    1
 Number of Electrons    NEL             ....  174
Dispersion correction           -0.016304727
FINAL SINGLE POINT ENERGY     -1715.475643285813
Dispersion correction            ... done
ORCA finished by error termination in GTOInt
                         Program Version 5.0.3 -  RELEASE  -
|  1> ! UKS wB97X-D3 def2-TZVP TIGHTSCF Opt CPCM PAL8
|  2> %maxcore 5000
|  3> %cpcm
|  4> smd true
|  5> SMDsolvent "N-METHYLFORMAMIDE"
|  6> end
|  7> * xyz 0 1
|  8>  C -0.07425707479814 6.45007760366319 3.54636897867849
|  9>  S 1.48979584793712 6.08048225687873 2.75598260255209
| 10>  C 1.14936654141856 4.63662227087222 1.83369205968326
| 11>  C -0.09136557109480 4.00305286554088 1.79338352444578
| 12>  C -0.25826928718407 2.84269542505768 1.05936282240646
| 13>  C 0.80050967676942 2.30271389692801 0.33923873907232
| 14>  C 2.02875697338567 2.96040825022008 0.34201900047512
| 15>  C 2.20764771123846 4.10330343094754 1.09121055149825
| 16>  C 0.66254428710301 1.09941809961861 -0.50690159852297
| 17>  O 0.00000000000000 0.00000000000000 0.00000000000000
| 18>  O 1.06713866538631 0.98717129960580 -1.62357736506780
| 19>  O 0.00000000000000 0.00000000000000 1.41527284498687
| 20>  C -1.27388770944479 0.00000000000000 1.91590645535523
| 21>  C -1.22211457253867 0.06642777988277 3.38831477989974
| 22>  O -2.25742922897412 -0.02585779042736 1.23875652957256
| 23>  C -2.41543940252313 -0.12289611375011 4.08595252694906
| 24>  C -2.44195923478874 -0.03437680070658 5.45887710053507
| 25>  C -1.27275068522395 0.25496212808386 6.17298493884884
| 26>  C -0.08177795586127 0.45060655108151 5.47518008098465
| 27>  C -0.05890441770979 0.35440376081578 4.09544628781756
| 28>  S -1.42666733932306 0.34986111841343 7.90788531117200
| 29>  C 0.24316058065577 0.68495422113854 8.46194522255982
| 30>  H 0.10416325535368 7.34607684664392 4.14087383255362
| 31>  H -0.38882275224257 5.64387294862163 4.21002028523424
| 32>  H -0.85323854703301 6.66443357654391 2.81385647784552
| 33>  H -0.93700004363157 4.40513362395569 2.33421606140266
| 34>  H -1.23507439683237 2.37497021944690 1.02749021968162
| 35>  H 2.84544686618639 2.55882587909200 -0.24576673820719
| 36>  H 3.17295340310622 4.59670965109571 1.10248346369500
| 37>  H -3.31769085302541 -0.33900022625314 3.52707230389961
| 38>  H -3.37188538809726 -0.18808364875198 5.99464715790180
| 39>  H 0.83479761044422 0.68252071425859 5.99988733430662
| 40>  H 0.87046926144621 0.51883617942438 3.56602510045047
| 41>  H 0.18454114424639 0.73729393679500 9.54909076814075
| 42>  H 0.60864534290486 1.64029462399245 8.08374213903351
| 43>  H 0.92507514742305 -0.11949528816653 8.18458994466104
| 44> *
| 45>
| 46>                          ****END OF INPUT****
Dispersion correction           -0.016304727
FINAL SINGLE POINT ENERGY     -1715.475643285813
Dispersion correction            ... done
Dispersion correction           -0.016008331
FINAL SINGLE POINT ENERGY     -1715.475971310753
Dispersion correction            ... done
FINAL SINGLE POINT ENERGY     -1715.475713487799
FINAL SINGLE POINT ENERGY     -1715.476570139975
FINAL SINGLE POINT ENERGY     -1715.476451633586
FINAL SINGLE POINT ENERGY     -1715.476594453404
FINAL SINGLE POINT ENERGY     -1715.476611385352
FINAL SINGLE POINT ENERGY     -1715.476634968335
FINAL SINGLE POINT ENERGY     -1715.476627065447
Dispersion correction            ... done
Dispersion correction           -0.016761809
FINAL SINGLE POINT ENERGY     -1715.476644641317
Dispersion correction            ... done
Dispersion correction           -0.016789147
FINAL SINGLE POINT ENERGY     -1715.476647744532
Dispersion correction            ... done
                    ***********************HURRAY********************

CARTESIAN COORDINATES (ANGSTROEM)
---------------------------------
  C      0.165562    6.229345    3.887338
  S      1.648595    5.915110    2.930137
  C      1.224897    4.537669    1.929280
  C     -0.039270    3.951527    1.909621
  C     -0.280579    2.848496    1.111087
  C      0.727470    2.327959    0.309227
  C      1.980982    2.933289    0.297601
  C      2.231643    4.019682    1.109975
  C      0.506767    1.174437   -0.586303
  O     -0.083965    0.031995   -0.092429
  O      0.792184    1.122249   -1.749489
  O     -0.046559   -0.012835    1.314907
  C     -1.303939   -0.138950    1.844683
  C     -1.242201   -0.033628    3.312957
  O     -2.281478   -0.306267    1.171817
  C     -2.335343   -0.485708    4.051973
  C     -2.342417   -0.365046    5.423317
  C     -1.261032    0.225631    6.087688
  C     -0.171192    0.680098    5.347893
  C     -0.162525    0.547501    3.970985
  S     -1.378420    0.341844    7.831513
  C      0.121757    1.196163    8.313371
  H      0.414125    7.064156    4.542922
  H     -0.103881    5.371484    4.502986
  H     -0.671358    6.522053    3.254286
  H     -0.845913    4.339538    2.516133
  H     -1.272252    2.411402    1.102667
  H      2.766528    2.537529   -0.335002
  H      3.218413    4.468749    1.111319
  H     -3.179632   -0.936899    3.545478
  H     -3.196464   -0.723788    5.986562
  H      0.677603    1.144714    5.830417
  H      0.688860    0.917819    3.414638
  H      0.057360    1.306105    9.396117
  H      0.179957    2.187330    7.864871
  H      1.012195    0.615668    8.074988

 Multiplicity           Mult            ....    1
 Number of Electrons    NEL             ....  174
 Basis Dimension        Dim             ....  778

ORBITAL ENERGIES
----------------
                 SPIN UP ORBITALS
  NO   OCC          E(Eh)            E(eV)
   0   1.0000     -88.958497     -2420.6838
   1   1.0000     -88.956967     -2420.6421
   2   1.0000     -19.355821      -526.6987
   3   1.0000     -19.354774      -526.6702
   4   1.0000     -19.250132      -523.8227
   5   1.0000     -19.245783      -523.7044
   6   1.0000     -10.440560      -284.1021
   7   1.0000     -10.435918      -283.9758
   8   1.0000     -10.331358      -281.1306
   9   1.0000     -10.328969      -281.0655
  10   1.0000     -10.306934      -280.4659
  11   1.0000     -10.305350      -280.4228
  12   1.0000     -10.299815      -280.2722
  13   1.0000     -10.299739      -280.2701
  14   1.0000     -10.298240      -280.2294
  15   1.0000     -10.298057      -280.2244
  16   1.0000     -10.295610      -280.1578
  17   1.0000     -10.295219      -280.1471
  18   1.0000     -10.290452      -280.0174
  19   1.0000     -10.290199      -280.0106
  20   1.0000     -10.289789      -279.9994
  21   1.0000     -10.289496      -279.9914
  22   1.0000      -8.055487      -219.2009
  23   1.0000      -8.053949      -219.1591
  24   1.0000      -6.009381      -163.5236
  25   1.0000      -6.007868      -163.4824
  26   1.0000      -6.005277      -163.4119
  27   1.0000      -6.003787      -163.3713
  28   1.0000      -6.000872      -163.2920
  29   1.0000      -5.999264      -163.2483
  30   1.0000      -1.334570       -36.3155
  31   1.0000      -1.220894       -33.2222
  32   1.0000      -1.187539       -32.3146
  33   1.0000      -1.089139       -29.6370
  34   1.0000      -1.005585       -27.3634
  35   1.0000      -1.004185       -27.3253
  36   1.0000      -0.937545       -25.5119
  37   1.0000      -0.935541       -25.4574
  38   1.0000      -0.884039       -24.0559
  39   1.0000      -0.881563       -23.9885
  40   1.0000      -0.875706       -23.8292
  41   1.0000      -0.873101       -23.7583
  42   1.0000      -0.805643       -21.9227
  43   1.0000      -0.788739       -21.4627
  44   1.0000      -0.756973       -20.5983
  45   1.0000      -0.737992       -20.0818
  46   1.0000      -0.735779       -20.0216
  47   1.0000      -0.720778       -19.6134
  48   1.0000      -0.698676       -19.0119
  49   1.0000      -0.685680       -18.6583
  50   1.0000      -0.665690       -18.1143
  51   1.0000      -0.656994       -17.8777
  52   1.0000      -0.625266       -17.0143
  53   1.0000      -0.604566       -16.4511
  54   1.0000      -0.591086       -16.0843
  55   1.0000      -0.588180       -16.0052
  56   1.0000      -0.573216       -15.5980
  57   1.0000      -0.572091       -15.5674
  58   1.0000      -0.567602       -15.4452
  59   1.0000      -0.555286       -15.1101
  60   1.0000      -0.552453       -15.0330
  61   1.0000      -0.542630       -14.7657
  62   1.0000      -0.536224       -14.5914
  63   1.0000      -0.531537       -14.4639
  64   1.0000      -0.531427       -14.4609
  65   1.0000      -0.530598       -14.4383
  66   1.0000      -0.521077       -14.1792
  67   1.0000      -0.503884       -13.7114
  68   1.0000      -0.499380       -13.5888
  69   1.0000      -0.495094       -13.4722
  70   1.0000      -0.492455       -13.4004
  71   1.0000      -0.469883       -12.7862
  72   1.0000      -0.465861       -12.6767
  73   1.0000      -0.460759       -12.5379
  74   1.0000      -0.450720       -12.2647
  75   1.0000      -0.449334       -12.2270
  76   1.0000      -0.427938       -11.6448
  77   1.0000      -0.419498       -11.4151
  78   1.0000      -0.417735       -11.3672
  79   1.0000      -0.410930       -11.1820
  80   1.0000      -0.408371       -11.1123
  81   1.0000      -0.395231       -10.7548
  82   1.0000      -0.390758       -10.6331
  83   1.0000      -0.361502        -9.8370
  84   1.0000      -0.355604        -9.6765
  85   1.0000      -0.304189        -8.2774
  86   1.0000      -0.302634        -8.2351
  87   0.0000       0.005697         0.1550
  88   0.0000       0.019446         0.5291
  89   0.0000       0.050312         1.3691
  90   0.0000       0.053812         1.4643
  91   0.0000       0.077808         2.1173

                 SPIN DOWN ORBITALS
  NO   OCC          E(Eh)            E(eV)
   0   1.0000     -88.958497     -2420.6838
   1   1.0000     -88.956967     -2420.6421
   2   1.0000     -19.355821      -526.6987
   3   1.0000     -19.354774      -526.6702
   4   1.0000     -19.250132      -523.8227
   5   1.0000     -19.245783      -523.7044
   6   1.0000     -10.440560      -284.1021
   7   1.0000     -10.435918      -283.9758
   8   1.0000     -10.331358      -281.1306
   9   1.0000     -10.328969      -281.0655
  10   1.0000     -10.306934      -280.4659
  11   1.0000     -10.305350      -280.4228
  12   1.0000     -10.299815      -280.2722
  13   1.0000     -10.299739      -280.2701
  14   1.0000     -10.298240      -280.2294
  15   1.0000     -10.298057      -280.2244
  16   1.0000     -10.295610      -280.1578
  17   1.0000     -10.295219      -280.1471
  18   1.0000     -10.290452      -280.0174
  19   1.0000     -10.290199      -280.0106
  20   1.0000     -10.289789      -279.9994
  21   1.0000     -10.289496      -279.9914
  22   1.0000      -8.055487      -219.2009
  23   1.0000      -8.053949      -219.1591
  24   1.0000      -6.009381      -163.5236
  25   1.0000      -6.007868      -163.4824
  26   1.0000      -6.005277      -163.4119
  27   1.0000      -6.003787      -163.3713
  28   1.0000      -6.000872      -163.2920
  29   1.0000      -5.999264      -163.2483
  30   1.0000      -1.334570       -36.3155
  31   1.0000      -1.220894       -33.2222
  32   1.0000      -1.187539       -32.3146
  33   1.0000      -1.089139       -29.6370
  34   1.0000      -1.005585       -27.3634
  35   1.0000      -1.004185       -27.3253
  36   1.0000      -0.937545       -25.5119
  37   1.0000      -0.935541       -25.4574
  38   1.0000      -0.884039       -24.0559
  39   1.0000      -0.881563       -23.9885
  40   1.0000      -0.875706       -23.8292
  41   1.0000      -0.873101       -23.7583
  42   1.0000      -0.805643       -21.9227
  43   1.0000      -0.788739       -21.4627
  44   1.0000      -0.756973       -20.5983
  45   1.0000      -0.737992       -20.0818
  46   1.0000      -0.735779       -20.0216
  47   1.0000      -0.720778       -19.6134
  48   1.0000      -0.698676       -19.0119
  49   1.0000      -0.685680       -18.6583
  50   1.0000      -0.665690       -18.1143
  51   1.0000      -0.656994       -17.8777
  52   1.0000      -0.625266       -17.0143
  53   1.0000      -0.604566       -16.4511
  54   1.0000      -0.591086       -16.0843
  55   1.0000      -0.588180       -16.0052
  56   1.0000      -0.573216       -15.5980
  57   1.0000      -0.572091       -15.5674
  58   1.0000      -0.567602       -15.4452
  59   1.0000      -0.555286       -15.1101
  60   1.0000      -0.552453       -15.0330
  61   1.0000      -0.542630       -14.7657
  62   1.0000      -0.536224       -14.5914
  63   1.0000      -0.531537       -14.4639
  64   1.0000      -0.531427       -14.4609
  65   1.0000      -0.530598       -14.4383
  66   1.0000      -0.521077       -14.1792
  67   1.0000      -0.503884       -13.7114
  68   1.0000      -0.499380       -13.5888
  69   1.0000      -0.495094       -13.4722
  70   1.0000      -0.492455       -13.4004
  71   1.0000      -0.469883       -12.7862
  72   1.0000      -0.465861       -12.6767
  73   1.0000      -0.460759       -12.5379
  74   1.0000      -0.450720       -12.2647
  75   1.0000      -0.449334       -12.2270
  76   1.0000      -0.427938       -11.6448
  77   1.0000      -0.419498       -11.4151
  78   1.0000      -0.417735       -11.3672
  79   1.0000      -0.410930       -11.1820
  80   1.0000      -0.408371       -11.1123
  81   1.0000      -0.395231       -10.7548
  82   1.0000      -0.390758       -10.6331
  83   1.0000      -0.361502        -9.8370
  84   1.0000      -0.355604        -9.6765
  85   1.0000      -0.304189        -8.2774
  86   1.0000      -0.302634        -8.2351
  87   0.0000       0.005697         0.1550
  88   0.0000       0.019446         0.5291
  89   0.0000       0.050312         1.3691
  90   0.0000       0.053812         1.4643
  91   0.0000       0.077808         2.1173

MULLIKEN ATOMIC CHARGES AND SPIN POPULATIONS
--------------------------------------------
   0 C :   -0.421792   -0.000000
   1 S :   -0.047986    0.000000
   2 C :    0.139808    0.000000
   3 C :   -0.227894   -0.000000
   4 C :   -0.286642    0.000000
   5 C :    0.097492   -0.000000
   6 C :   -0.258502    0.000000
   7 C :   -0.187275   -0.000000
   8 C :    0.417309   -0.000000
   9 O :   -0.120017    0.000000
  10 O :   -0.388057    0.000000
  11 O :   -0.123493    0.000000
  12 C :    0.419885   -0.000000
  13 C :    0.086073   -0.000000
  14 O :   -0.405860   -0.000000
  15 C :   -0.236852    0.000000
  16 C :   -0.189664   -0.000000
  17 C :    0.149363    0.000000
  18 C :   -0.252618    0.000000
  19 C :   -0.255244    0.000000
  20 S :   -0.041647    0.000000
  21 C :   -0.421486    0.000000
  22 H :    0.189523   -0.000000
  23 H :    0.173158    0.000000
  24 H :    0.172114    0.000000
  25 H :    0.188292   -0.000000
  26 H :    0.201695    0.000000
  27 H :    0.183035    0.000000
  28 H :    0.174242   -0.000000
  29 H :    0.176630    0.000000
  30 H :    0.173955   -0.000000
  31 H :    0.187796   -0.000000
  32 H :    0.197941    0.000000
  33 H :    0.190399   -0.000000
  34 H :    0.173616   -0.000000
  35 H :    0.172703    0.000000
Sum of atomic charges         :    0.0000000

LOEWDIN ATOMIC CHARGES AND SPIN POPULATIONS
-------------------------------------------
   0 C :   -0.503484   -0.000000
   1 S :    0.557902    0.000000
   2 C :   -0.363147   -0.000000
   3 C :   -0.138816   -0.000000
   4 C :   -0.086835   -0.000000
   5 C :   -0.154394    0.000000
   6 C :   -0.084140    0.000000
   7 C :   -0.142664   -0.000000
   8 C :   -0.411042   -0.000000
   9 O :    0.207796    0.000000
  10 O :    0.098604    0.000000
  11 O :    0.215438    0.000000
  12 C :   -0.439267   -0.000000
  13 C :   -0.149123   -0.000000
  14 O :    0.086295    0.000000
  15 C :   -0.077992    0.000000
  16 C :   -0.142876   -0.000000
  17 C :   -0.359690    0.000000
  18 C :   -0.139544    0.000000
  19 C :   -0.083242   -0.000000
  20 S :    0.565011    0.000000
  21 C :   -0.502285   -0.000000
  22 H :    0.127427    0.000000
  23 H :    0.119130    0.000000
  24 H :    0.118364   -0.000000
  25 H :    0.163000    0.000000
  26 H :    0.169359    0.000000
  27 H :    0.168362    0.000000
  28 H :    0.159730    0.000000
  29 H :    0.166873    0.000000
  30 H :    0.159927   -0.000000
  31 H :    0.162419   -0.000000
  32 H :    0.166661   -0.000000
  33 H :    0.127780   -0.000000
  34 H :    0.119609   -0.000000
  35 H :    0.118854    0.000000

  Mayer bond orders larger than 0.100000
B(  0-C ,  1-S ) :   1.0613 B(  0-C , 22-H ) :   0.9425 B(  0-C , 23-H ) :   0.9546
B(  0-C , 24-H ) :   0.9533 B(  1-S ,  2-C ) :   1.1968 B(  2-C ,  3-C ) :   1.2774
B(  2-C ,  7-C ) :   1.2841 B(  3-C ,  4-C ) :   1.4628 B(  3-C , 25-H ) :   0.9649
B(  4-C ,  5-C ) :   1.3141 B(  4-C , 26-H ) :   0.9409 B(  5-C ,  6-C ) :   1.3288
B(  5-C ,  8-C ) :   0.9700 B(  6-C ,  7-C ) :   1.4803 B(  6-C , 27-H ) :   0.9773
B(  7-C , 28-H ) :   0.9781 B(  8-C ,  9-O ) :   1.0972 B(  8-C , 10-O ) :   2.0405
B(  9-O , 11-O ) :   0.8191 B( 11-O , 12-C ) :   1.0925 B( 12-C , 13-C ) :   0.9892
B( 12-C , 14-O ) :   1.9709 B( 13-C , 15-C ) :   1.3018 B( 13-C , 19-C ) :   1.3260
B( 15-C , 16-C ) :   1.5094 B( 15-C , 29-H ) :   0.9733 B( 16-C , 17-C ) :   1.2679
B( 16-C , 30-H ) :   0.9792 B( 17-C , 18-C ) :   1.2880 B( 17-C , 20-S ) :   1.2077
B( 18-C , 19-C ) :   1.4834 B( 18-C , 31-H ) :   0.9600 B( 19-C , 32-H ) :   0.9540
B( 20-S , 21-C ) :   1.0611 B( 21-C , 33-H ) :   0.9420 B( 21-C , 34-H ) :   0.9541
B( 21-C , 35-H ) :   0.9538

Dispersion correction           -0.016823884
FINAL SINGLE POINT ENERGY     -1715.476645040648

DIPOLE MOMENT
-------------
                                X             Y             Z
Electronic contribution:     -0.80000      -9.04070     -13.64010
Nuclear contribution   :      1.44557      10.88886      17.58344
                        -----------------------------------------
Total Dipole Moment    :      0.64557       1.84816       3.94334
                        -----------------------------------------
Magnitude (a.u.)       :      4.40254
Magnitude (Debye)      :     11.19037

Rotational constants in cm-1:     0.008882     0.005410     0.003644
Rotational constants in MHz :   266.280881   162.193879   109.250109

                             ****ORCA TERMINATED NORMALLY****
TOTAL RUN TIME: 0 days 1 hours 10 minutes 53 seconds 658 msec
