                         Program Version 5.0.3 -  RELEASE  -
|  1> ! UKS wB97X-D3 def2-TZVP TIGHTSCF Opt CPCM PAL8
|  2> %maxcore 5000
|  3> %cpcm
|  4> smd true
|  5> SMDsolvent "DMF"
|  6> end
|  7> * xyz 0 1
|  8>  C -0.07425707479814 6.45007760366319 3.54636897867849
|  9>  S 1.48979584793712 6.08048225687873 2.75598260255209
| 10>  C 1.14936654141856 4.63662227087222 1.83369205968326
| 11>  C -0.09136557109480 4.00305286554088 1.79338352444578
| 12>  C -0.25826928718407 2.84269542505768 1.05936282240646
| 13>  C 0.80050967676942 2.30271389692801 0.33923873907232
| 14>  C 2.02875697338567 2.96040825022008 0.34201900047512
| 15>  C 2.20764771123846 4.10330343094754 1.09121055149825
| 16>  C 0.66254428710301 1.09941809961861 -0.50690159852297
| 17>  O 0.00000000000000 0.00000000000000 0.00000000000000
| 18>  O 1.06713866538631 0.98717129960580 -1.62357736506780
| 19>  O 0.00000000000000 0.00000000000000 1.41527284498687
| 20>  C -1.27388770944479 0.00000000000000 1.91590645535523
| 21>  C -1.22211457253867 0.06642777988277 3.38831477989974
| 22>  O -2.25742922897412 -0.02585779042736 1.23875652957256
| 23>  C -2.41543940252313 -0.12289611375011 4.08595252694906
| 24>  C -2.44195923478874 -0.03437680070658 5.45887710053507
| 25>  C -1.27275068522395 0.25496212808386 6.17298493884884
| 26>  C -0.08177795586127 0.45060655108151 5.47518008098465
| 27>  C -0.05890441770979 0.35440376081578 4.09544628781756
| 28>  S -1.42666733932306 0.34986111841343 7.90788531117200
| 29>  C 0.24316058065577 0.68495422113854 8.46194522255982
| 30>  H 0.10416325535368 7.34607684664392 4.14087383255362
| 31>  H -0.38882275224257 5.64387294862163 4.21002028523424
| 32>  H -0.85323854703301 6.66443357654391 2.81385647784552
| 33>  H -0.93700004363157 4.40513362395569 2.33421606140266
| 34>  H -1.23507439683237 2.37497021944690 1.02749021968162
| 35>  H 2.84544686618639 2.55882587909200 -0.24576673820719
| 36>  H 3.17295340310622 4.59670965109571 1.10248346369500
| 37>  H -3.31769085302541 -0.33900022625314 3.52707230389961
| 38>  H -3.37188538809726 -0.18808364875198 5.99464715790180
| 39>  H 0.83479761044422 0.68252071425859 5.99988733430662
| 40>  H 0.87046926144621 0.51883617942438 3.56602510045047
| 41>  H 0.18454114424639 0.73729393679500 9.54909076814075
| 42>  H 0.60864534290486 1.64029462399245 8.08374213903351
| 43>  H 0.92507514742305 -0.11949528816653 8.18458994466104
| 44> *
| 45>
| 46>                          ****END OF INPUT****
 Total Charge           Charge          ....    0
 Multiplicity           Mult            ....    1
 Number of Electrons    NEL             ....  174
Dispersion correction           -0.016304727
FINAL SINGLE POINT ENERGY     -1715.483043474621
Dispersion correction            ... done
Dispersion correction           -0.015982696
FINAL SINGLE POINT ENERGY     -1715.483065493209
Dispersion correction            ... done
Dispersion correction           -0.016675102
FINAL SINGLE POINT ENERGY     -1715.483335048285
Dispersion correction            ... done
FINAL SINGLE POINT ENERGY     -1715.483771955919
FINAL SINGLE POINT ENERGY     -1715.483699106760
FINAL SINGLE POINT ENERGY     -1715.483879607962
FINAL SINGLE POINT ENERGY     -1715.483955412636
FINAL SINGLE POINT ENERGY     -1715.483988187245
FINAL SINGLE POINT ENERGY     -1715.484024827414
FINAL SINGLE POINT ENERGY     -1715.484034779102
FINAL SINGLE POINT ENERGY     -1715.484927071111
FINAL SINGLE POINT ENERGY     -1715.485023599187
FINAL SINGLE POINT ENERGY     -1715.485033530579
FINAL SINGLE POINT ENERGY     -1715.484979143653
FINAL SINGLE POINT ENERGY     -1715.485044393586
FINAL SINGLE POINT ENERGY     -1715.485043854334
FINAL SINGLE POINT ENERGY     -1715.485034148317
Dispersion correction            ... done
Dispersion correction           -0.022277767
FINAL SINGLE POINT ENERGY     -1715.485021397929
Dispersion correction            ... done
Dispersion correction           -0.022269714
FINAL SINGLE POINT ENERGY     -1715.485022220557
Dispersion correction            ... done
                    ***********************HURRAY********************

CARTESIAN COORDINATES (ANGSTROEM)
---------------------------------
  C     -0.475320    5.056734    4.719437
  S      1.159993    4.847907    4.011121
  C      0.856033    3.893144    2.565674
  C     -0.397025    3.757846    1.977870
  C     -0.564519    2.931900    0.875877
  C      0.515133    2.230931    0.361841
  C      1.780486    2.398400    0.916163
  C      1.950272    3.232417    2.001967
  C      0.309644    1.245022   -0.736698
  O      0.206510   -0.084461   -0.371010
  O      0.232240    1.465226   -1.905335
  O      0.239349   -0.250055    1.028217
  C     -1.021152   -0.110455    1.575634
  C     -0.932436    0.141344    3.027428
  O     -2.016991   -0.142610    0.916159
  C     -2.125095    0.198003    3.750191
  C     -2.123099    0.602106    5.065879
  C     -0.925431    0.968327    5.691400
  C      0.269153    0.882217    4.979900
  C      0.262795    0.471959    3.658343
  S     -1.042209    1.528144    7.347608
  C      0.607445    2.122913    7.719684
  H     -0.320475    5.506647    5.700405
  H     -0.969966    4.093201    4.847501
  H     -1.098162    5.724842    4.126340
  H     -1.259023    4.274097    2.378387
  H     -1.550298    2.815833    0.440977
  H      2.627535    1.852284    0.517749
  H      2.934352    3.337079    2.444666
  H     -3.058949   -0.051550    3.262467
  H     -3.058714    0.659564    5.610376
  H      1.211474    1.152207    5.436667
  H      1.198689    0.443920    3.117323
  H      0.545290    2.546117    8.722346
  H      0.908919    2.908342    7.026678
  H      1.340030    1.316877    7.726298

 Multiplicity           Mult            ....    1
 Number of Electrons    NEL             ....  174
 Basis Dimension        Dim             ....  778

ORBITAL ENERGIES
----------------
                 SPIN UP ORBITALS
  NO   OCC          E(Eh)            E(eV)
   0   1.0000     -88.958581     -2420.6861
   1   1.0000     -88.954803     -2420.5833
   2   1.0000     -19.349619      -526.5299
   3   1.0000     -19.345915      -526.4291
   4   1.0000     -19.247212      -523.7433
   5   1.0000     -19.239808      -523.5418
   6   1.0000     -10.434899      -283.9480
   7   1.0000     -10.428949      -283.7861
   8   1.0000     -10.330930      -281.1189
   9   1.0000     -10.324755      -280.9509
  10   1.0000     -10.307455      -280.4801
  11   1.0000     -10.304074      -280.3881
  12   1.0000     -10.298871      -280.2465
  13   1.0000     -10.297434      -280.2074
  14   1.0000     -10.296935      -280.1938
  15   1.0000     -10.296547      -280.1833
  16   1.0000     -10.296256      -280.1754
  17   1.0000     -10.294878      -280.1379
  18   1.0000     -10.290449      -280.0174
  19   1.0000     -10.290256      -280.0121
  20   1.0000     -10.289598      -279.9942
  21   1.0000     -10.289297      -279.9860
  22   1.0000      -8.055560      -219.2029
  23   1.0000      -8.051753      -219.0993
  24   1.0000      -6.009448      -163.5254
  25   1.0000      -6.005711      -163.4237
  26   1.0000      -6.005355      -163.4140
  27   1.0000      -6.001689      -163.3143
  28   1.0000      -6.000951      -163.2942
  29   1.0000      -5.996955      -163.1855
  30   1.0000      -1.327170       -36.1141
  31   1.0000      -1.214821       -33.0570
  32   1.0000      -1.183555       -32.2062
  33   1.0000      -1.079458       -29.3735
  34   1.0000      -1.005395       -27.3582
  35   1.0000      -1.002505       -27.2795
  36   1.0000      -0.936758       -25.4905
  37   1.0000      -0.933643       -25.4057
  38   1.0000      -0.882156       -24.0047
  39   1.0000      -0.881518       -23.9873
  40   1.0000      -0.874845       -23.8058
  41   1.0000      -0.871146       -23.7051
  42   1.0000      -0.804187       -21.8830
  43   1.0000      -0.785732       -21.3809
  44   1.0000      -0.757320       -20.6077
  45   1.0000      -0.737505       -20.0685
  46   1.0000      -0.735050       -20.0017
  47   1.0000      -0.716187       -19.4884
  48   1.0000      -0.698934       -19.0190
  49   1.0000      -0.677887       -18.4462
  50   1.0000      -0.661508       -18.0006
  51   1.0000      -0.647485       -17.6190
  52   1.0000      -0.621421       -16.9097
  53   1.0000      -0.598252       -16.2793
  54   1.0000      -0.592161       -16.1135
  55   1.0000      -0.582294       -15.8450
  56   1.0000      -0.574261       -15.6264
  57   1.0000      -0.566422       -15.4131
  58   1.0000      -0.561864       -15.2891
  59   1.0000      -0.553550       -15.0628
  60   1.0000      -0.550898       -14.9907
  61   1.0000      -0.540361       -14.7040
  62   1.0000      -0.536448       -14.5975
  63   1.0000      -0.534198       -14.5363
  64   1.0000      -0.531387       -14.4598
  65   1.0000      -0.525606       -14.3025
  66   1.0000      -0.517819       -14.0906
  67   1.0000      -0.503535       -13.7019
  68   1.0000      -0.500616       -13.6224
  69   1.0000      -0.493153       -13.4194
  70   1.0000      -0.487974       -13.2784
  71   1.0000      -0.469526       -12.7765
  72   1.0000      -0.466675       -12.6989
  73   1.0000      -0.450311       -12.2536
  74   1.0000      -0.448550       -12.2057
  75   1.0000      -0.446310       -12.1447
  76   1.0000      -0.431017       -11.7286
  77   1.0000      -0.420271       -11.4362
  78   1.0000      -0.417376       -11.3574
  79   1.0000      -0.404208       -10.9991
  80   1.0000      -0.399559       -10.8726
  81   1.0000      -0.393429       -10.7057
  82   1.0000      -0.383688       -10.4407
  83   1.0000      -0.358543        -9.7564
  84   1.0000      -0.355888        -9.6842
  85   1.0000      -0.305290        -8.3074
  86   1.0000      -0.300613        -8.1801
  87   0.0000       0.006749         0.1836
  88   0.0000       0.040444         1.1005
  89   0.0000       0.048949         1.3320
  90   0.0000       0.051882         1.4118
  91   0.0000       0.069678         1.8960

                 SPIN DOWN ORBITALS
  NO   OCC          E(Eh)            E(eV)
   0   1.0000     -88.958581     -2420.6861
   1   1.0000     -88.954803     -2420.5833
   2   1.0000     -19.349619      -526.5299
   3   1.0000     -19.345915      -526.4291
   4   1.0000     -19.247212      -523.7433
   5   1.0000     -19.239808      -523.5418
   6   1.0000     -10.434899      -283.9480
   7   1.0000     -10.428949      -283.7861
   8   1.0000     -10.330930      -281.1189
   9   1.0000     -10.324755      -280.9509
  10   1.0000     -10.307455      -280.4801
  11   1.0000     -10.304074      -280.3881
  12   1.0000     -10.298871      -280.2465
  13   1.0000     -10.297434      -280.2074
  14   1.0000     -10.296935      -280.1938
  15   1.0000     -10.296547      -280.1833
  16   1.0000     -10.296256      -280.1754
  17   1.0000     -10.294878      -280.1379
  18   1.0000     -10.290449      -280.0174
  19   1.0000     -10.290256      -280.0121
  20   1.0000     -10.289598      -279.9942
  21   1.0000     -10.289297      -279.9860
  22   1.0000      -8.055560      -219.2029
  23   1.0000      -8.051753      -219.0993
  24   1.0000      -6.009448      -163.5254
  25   1.0000      -6.005711      -163.4237
  26   1.0000      -6.005355      -163.4140
  27   1.0000      -6.001689      -163.3143
  28   1.0000      -6.000951      -163.2942
  29   1.0000      -5.996955      -163.1855
  30   1.0000      -1.327170       -36.1141
  31   1.0000      -1.214821       -33.0570
  32   1.0000      -1.183555       -32.2062
  33   1.0000      -1.079458       -29.3735
  34   1.0000      -1.005395       -27.3582
  35   1.0000      -1.002505       -27.2795
  36   1.0000      -0.936758       -25.4905
  37   1.0000      -0.933643       -25.4057
  38   1.0000      -0.882156       -24.0047
  39   1.0000      -0.881518       -23.9873
  40   1.0000      -0.874845       -23.8058
  41   1.0000      -0.871146       -23.7051
  42   1.0000      -0.804187       -21.8830
  43   1.0000      -0.785732       -21.3809
  44   1.0000      -0.757320       -20.6077
  45   1.0000      -0.737505       -20.0685
  46   1.0000      -0.735050       -20.0017
  47   1.0000      -0.716187       -19.4884
  48   1.0000      -0.698934       -19.0190
  49   1.0000      -0.677887       -18.4462
  50   1.0000      -0.661508       -18.0006
  51   1.0000      -0.647485       -17.6190
  52   1.0000      -0.621421       -16.9097
  53   1.0000      -0.598252       -16.2793
  54   1.0000      -0.592161       -16.1135
  55   1.0000      -0.582294       -15.8450
  56   1.0000      -0.574261       -15.6264
  57   1.0000      -0.566422       -15.4131
  58   1.0000      -0.561864       -15.2891
  59   1.0000      -0.553550       -15.0628
  60   1.0000      -0.550898       -14.9907
  61   1.0000      -0.540361       -14.7040
  62   1.0000      -0.536448       -14.5975
  63   1.0000      -0.534198       -14.5363
  64   1.0000      -0.531387       -14.4598
  65   1.0000      -0.525606       -14.3025
  66   1.0000      -0.517819       -14.0906
  67   1.0000      -0.503535       -13.7019
  68   1.0000      -0.500616       -13.6224
  69   1.0000      -0.493153       -13.4194
  70   1.0000      -0.487974       -13.2784
  71   1.0000      -0.469526       -12.7765
  72   1.0000      -0.466675       -12.6989
  73   1.0000      -0.450311       -12.2536
  74   1.0000      -0.448550       -12.2057
  75   1.0000      -0.446310       -12.1447
  76   1.0000      -0.431017       -11.7286
  77   1.0000      -0.420271       -11.4362
  78   1.0000      -0.417376       -11.3574
  79   1.0000      -0.404208       -10.9991
  80   1.0000      -0.399559       -10.8726
  81   1.0000      -0.393429       -10.7057
  82   1.0000      -0.383688       -10.4407
  83   1.0000      -0.358543        -9.7564
  84   1.0000      -0.355888        -9.6842
  85   1.0000      -0.305290        -8.3074
  86   1.0000      -0.300613        -8.1801
  87   0.0000       0.006749         0.1836
  88   0.0000       0.040444         1.1005
  89   0.0000       0.048949         1.3320
  90   0.0000       0.051882         1.4118
  91   0.0000       0.069678         1.8960

MULLIKEN ATOMIC CHARGES AND SPIN POPULATIONS
--------------------------------------------
   0 C :   -0.422535    0.000000
   1 S :   -0.070498    0.000000
   2 C :    0.175348    0.000000
   3 C :   -0.292401   -0.000000
   4 C :   -0.188230   -0.000000
   5 C :    0.070877    0.000000
   6 C :   -0.222991   -0.000000
   7 C :   -0.198735    0.000000
   8 C :    0.320201   -0.000000
   9 O :   -0.100336   -0.000000
  10 O :   -0.310070    0.000000
  11 O :   -0.127611    0.000000
  12 C :    0.361914   -0.000000
  13 C :    0.072899   -0.000000
  14 O :   -0.329033    0.000000
  15 C :   -0.233160   -0.000000
  16 C :   -0.163116    0.000000
  17 C :    0.139535   -0.000000
  18 C :   -0.266835   -0.000000
  19 C :   -0.258970    0.000000
  20 S :   -0.046994   -0.000000
  21 C :   -0.412498   -0.000000
  22 H :    0.187939    0.000000
  23 H :    0.164981   -0.000000
  24 H :    0.179199    0.000000
  25 H :    0.186615   -0.000000
  26 H :    0.184545    0.000000
  27 H :    0.176422   -0.000000
  28 H :    0.169764   -0.000000
  29 H :    0.172691    0.000000
  30 H :    0.171721    0.000000
  31 H :    0.188048   -0.000000
  32 H :    0.197165    0.000000
  33 H :    0.188834    0.000000
  34 H :    0.161376    0.000000
  35 H :    0.173938    0.000000
Sum of atomic charges         :   -0.0000000

LOEWDIN ATOMIC CHARGES AND SPIN POPULATIONS
-------------------------------------------
   0 C :   -0.505288    0.000000
   1 S :    0.552785    0.000000
   2 C :   -0.370510    0.000000
   3 C :   -0.137227   -0.000000
   4 C :   -0.094864   -0.000000
   5 C :   -0.152147    0.000000
   6 C :   -0.095293   -0.000000
   7 C :   -0.141422   -0.000000
   8 C :   -0.420884    0.000000
   9 O :    0.205732   -0.000000
  10 O :    0.141994   -0.000000
  11 O :    0.197126   -0.000000
  12 C :   -0.444615   -0.000000
  13 C :   -0.151135   -0.000000
  14 O :    0.127963    0.000000
  15 C :   -0.078360   -0.000000
  16 C :   -0.143987    0.000000
  17 C :   -0.362100   -0.000000
  18 C :   -0.142101   -0.000000
  19 C :   -0.082412    0.000000
  20 S :    0.566565    0.000000
  21 C :   -0.501858    0.000000
  22 H :    0.126613    0.000000
  23 H :    0.117022   -0.000000
  24 H :    0.116422    0.000000
  25 H :    0.162195   -0.000000
  26 H :    0.168051    0.000000
  27 H :    0.168212   -0.000000
  28 H :    0.159527    0.000000
  29 H :    0.166191    0.000000
  30 H :    0.159335    0.000000
  31 H :    0.161954   -0.000000
  32 H :    0.165261    0.000000
  33 H :    0.127591   -0.000000
  34 H :    0.115577   -0.000000
  35 H :    0.118088    0.000000

  Mayer bond orders larger than 0.100000
B(  0-C ,  1-S ) :   1.0431 B(  0-C , 22-H ) :   0.9432 B(  0-C , 23-H ) :   0.9530
B(  0-C , 24-H ) :   0.9555 B(  1-S ,  2-C ) :   1.1281 B(  2-C ,  3-C ) :   1.2781
B(  2-C ,  7-C ) :   1.2579 B(  3-C ,  4-C ) :   1.4284 B(  3-C , 25-H ) :   0.9732
B(  4-C ,  5-C ) :   1.3249 B(  4-C , 26-H ) :   0.9812 B(  5-C ,  6-C ) :   1.2883
B(  5-C ,  8-C ) :   0.9420 B(  6-C ,  7-C ) :   1.4621 B(  6-C , 27-H ) :   0.9981
B(  7-C , 28-H ) :   0.9853 B(  8-C ,  9-O ) :   1.1027 B(  8-C , 10-O ) :   2.1355
B(  9-O , 11-O ) :   0.8265 B( 11-O , 12-C ) :   1.0677 B( 12-C , 13-C ) :   1.0044
B( 12-C , 14-O ) :   2.0680 B( 13-C , 15-C ) :   1.3045 B( 13-C , 19-C ) :   1.3123
B( 15-C , 16-C ) :   1.5017 B( 15-C , 29-H ) :   0.9744 B( 16-C , 17-C ) :   1.2593
B( 16-C , 30-H ) :   0.9812 B( 17-C , 18-C ) :   1.2703 B( 17-C , 20-S ) :   1.1903
B( 18-C , 19-C ) :   1.4565 B( 18-C , 31-H ) :   0.9691 B( 19-C , 32-H ) :   0.9627
B( 20-S , 21-C ) :   1.0584 B( 21-C , 33-H ) :   0.9428 B( 21-C , 34-H ) :   0.9533
B( 21-C , 35-H ) :   0.9547

Dispersion correction           -0.022276213
FINAL SINGLE POINT ENERGY     -1715.485023144267

DIPOLE MOMENT
-------------
                                X             Y             Z
Electronic contribution:     -0.43594      -8.64106     -14.54691
Nuclear contribution   :      1.12610       9.88410      17.98793
                        -----------------------------------------
Total Dipole Moment    :      0.69016       1.24304       3.44103
                        -----------------------------------------
Magnitude (a.u.)       :      3.72319
Magnitude (Debye)      :      9.46359

Rotational constants in cm-1:     0.012391     0.006331     0.004772
Rotational constants in MHz :   371.458892   189.798170   143.072043

                             ****ORCA TERMINATED NORMALLY****
TOTAL RUN TIME: 0 days 4 hours 11 minutes 52 seconds 123 msec
