                         Program Version 5.0.3 -  RELEASE  -
|  1> ! UKS PBE0 def2-TZVP def2/J RIJCOSX D3BJ TIGHTSCF Opt CPCM PAL8
|  2> %maxcore 5000
|  3> %cpcm
|  4> smd true
|  5> SMDsolvent "DMSO"
|  6> end
|  7> * xyz 0 1
|  8>  C -0.07425707479814 6.45007760366319 3.54636897867849
|  9>  S 1.48979584793712 6.08048225687873 2.75598260255209
| 10>  C 1.14936654141856 4.63662227087222 1.83369205968326
| 11>  C -0.09136557109480 4.00305286554088 1.79338352444578
| 12>  C -0.25826928718407 2.84269542505768 1.05936282240646
| 13>  C 0.80050967676942 2.30271389692801 0.33923873907232
| 14>  C 2.02875697338567 2.96040825022008 0.34201900047512
| 15>  C 2.20764771123846 4.10330343094754 1.09121055149825
| 16>  C 0.66254428710301 1.09941809961861 -0.50690159852297
| 17>  O 0.00000000000000 0.00000000000000 0.00000000000000
| 18>  O 1.06713866538631 0.98717129960580 -1.62357736506780
| 19>  O 0.00000000000000 0.00000000000000 1.41527284498687
| 20>  C -1.27388770944479 0.00000000000000 1.91590645535523
| 21>  C -1.22211457253867 0.06642777988277 3.38831477989974
| 22>  O -2.25742922897412 -0.02585779042736 1.23875652957256
| 23>  C -2.41543940252313 -0.12289611375011 4.08595252694906
| 24>  C -2.44195923478874 -0.03437680070658 5.45887710053507
| 25>  C -1.27275068522395 0.25496212808386 6.17298493884884
| 26>  C -0.08177795586127 0.45060655108151 5.47518008098465
| 27>  C -0.05890441770979 0.35440376081578 4.09544628781756
| 28>  S -1.42666733932306 0.34986111841343 7.90788531117200
| 29>  C 0.24316058065577 0.68495422113854 8.46194522255982
| 30>  H 0.10416325535368 7.34607684664392 4.14087383255362
| 31>  H -0.38882275224257 5.64387294862163 4.21002028523424
| 32>  H -0.85323854703301 6.66443357654391 2.81385647784552
| 33>  H -0.93700004363157 4.40513362395569 2.33421606140266
| 34>  H -1.23507439683237 2.37497021944690 1.02749021968162
| 35>  H 2.84544686618639 2.55882587909200 -0.24576673820719
| 36>  H 3.17295340310622 4.59670965109571 1.10248346369500
| 37>  H -3.31769085302541 -0.33900022625314 3.52707230389961
| 38>  H -3.37188538809726 -0.18808364875198 5.99464715790180
| 39>  H 0.83479761044422 0.68252071425859 5.99988733430662
| 40>  H 0.87046926144621 0.51883617942438 3.56602510045047
| 41>  H 0.18454114424639 0.73729393679500 9.54909076814075
| 42>  H 0.60864534290486 1.64029462399245 8.08374213903351
| 43>  H 0.92507514742305 -0.11949528816653 8.18458994466104
| 44> *
| 45>
| 46>                          ****END OF INPUT****
 Total Charge           Charge          ....    0
 Multiplicity           Mult            ....    1
 Number of Electrons    NEL             ....  174
Dispersion correction           -0.043892970
FINAL SINGLE POINT ENERGY     -1714.464850318062
Dispersion correction            ... done
Dispersion correction           -0.043339775
FINAL SINGLE POINT ENERGY     -1714.464849171123
Dispersion correction            ... done
Dispersion correction           -0.044022586
FINAL SINGLE POINT ENERGY     -1714.465193088349
Dispersion correction            ... done
FINAL SINGLE POINT ENERGY     -1714.465368048906
FINAL SINGLE POINT ENERGY     -1714.465353649469
FINAL SINGLE POINT ENERGY     -1714.465413093823
FINAL SINGLE POINT ENERGY     -1714.465395268187
FINAL SINGLE POINT ENERGY     -1714.465448358325
FINAL SINGLE POINT ENERGY     -1714.465449016451
FINAL SINGLE POINT ENERGY     -1714.465446724455
Dispersion correction            ... done
Dispersion correction           -0.044308418
FINAL SINGLE POINT ENERGY     -1714.465455315690
Dispersion correction            ... done
Dispersion correction           -0.044316474
FINAL SINGLE POINT ENERGY     -1714.465456894057
Dispersion correction            ... done
                    ***********************HURRAY********************

CARTESIAN COORDINATES (ANGSTROEM)
---------------------------------
  C      0.071657    6.273949    3.800460
  S      1.593260    5.937442    2.917994
  C      1.205206    4.547850    1.933657
  C     -0.051600    3.943065    1.904580
  C     -0.265431    2.825410    1.119614
  C      0.758379    2.304077    0.335215
  C      2.003911    2.931348    0.333746
  C      2.230565    4.030845    1.133872
  C      0.562725    1.150593   -0.558844
  O     -0.072541    0.025906   -0.082315
  O      0.897167    1.088740   -1.707300
  O     -0.047794   -0.030325    1.332468
  C     -1.314855   -0.099722    1.853872
  C     -1.248170    0.003847    3.318241
  O     -2.298635   -0.226525    1.184070
  C     -2.375916   -0.369975    4.052626
  C     -2.385336   -0.250954    5.423336
  C     -1.267086    0.258218    6.097808
  C     -0.141728    0.636399    5.364401
  C     -0.134382    0.506451    3.988039
  S     -1.387066    0.383475    7.832629
  C      0.191908    1.067659    8.326681
  H      0.286346    7.137285    4.432111
  H     -0.216204    5.436196    4.436723
  H     -0.739363    6.531646    3.118564
  H     -0.870970    4.332098    2.493698
  H     -1.255067    2.384648    1.101349
  H      2.803865    2.539909   -0.283813
  H      3.211145    4.494353    1.141318
  H     -3.245705   -0.756681    3.535544
  H     -3.265768   -0.549641    5.982012
  H      0.732953    1.039860    5.856377
  H      0.743309    0.819944    3.437756
  H      0.141072    1.160265    9.412701
  H      0.350767    2.057242    7.897162
  H      1.015862    0.401521    8.069178

 Multiplicity           Mult            ....    1
 Number of Electrons    NEL             ....  174
 Basis Dimension        Dim             ....  778

ORBITAL ENERGIES
----------------
                 SPIN UP ORBITALS
  NO   OCC          E(Eh)            E(eV)
   0   1.0000     -89.034403     -2422.7493
   1   1.0000     -89.032555     -2422.6990
   2   1.0000     -19.320136      -525.7276
   3   1.0000     -19.319858      -525.7201
   4   1.0000     -19.214419      -522.8509
   5   1.0000     -19.209702      -522.7226
   6   1.0000     -10.371339      -282.2185
   7   1.0000     -10.367101      -282.1032
   8   1.0000     -10.276805      -279.6461
   9   1.0000     -10.274479      -279.5828
  10   1.0000     -10.251238      -278.9504
  11   1.0000     -10.249820      -278.9118
  12   1.0000     -10.245074      -278.7826
  13   1.0000     -10.244500      -278.7670
  14   1.0000     -10.243004      -278.7263
  15   1.0000     -10.242956      -278.7250
  16   1.0000     -10.242433      -278.7108
  17   1.0000     -10.242332      -278.7080
  18   1.0000     -10.237263      -278.5701
  19   1.0000     -10.236749      -278.5561
  20   1.0000     -10.236146      -278.5397
  21   1.0000     -10.236059      -278.5373
  22   1.0000      -8.013155      -218.0490
  23   1.0000      -8.011305      -217.9987
  24   1.0000      -5.949629      -161.8976
  25   1.0000      -5.947815      -161.8483
  26   1.0000      -5.945955      -161.7977
  27   1.0000      -5.944161      -161.7488
  28   1.0000      -5.942205      -161.6956
  29   1.0000      -5.940272      -161.6430
  30   1.0000      -1.235220       -33.6120
  31   1.0000      -1.122849       -30.5543
  32   1.0000      -1.089880       -29.6572
  33   1.0000      -0.993134       -27.0245
  34   1.0000      -0.910976       -24.7889
  35   1.0000      -0.909745       -24.7554
  36   1.0000      -0.843992       -22.9662
  37   1.0000      -0.842176       -22.9168
  38   1.0000      -0.789955       -21.4958
  39   1.0000      -0.787727       -21.4351
  40   1.0000      -0.781659       -21.2700
  41   1.0000      -0.779187       -21.2027
  42   1.0000      -0.711514       -19.3613
  43   1.0000      -0.696321       -18.9479
  44   1.0000      -0.663661       -18.0591
  45   1.0000      -0.646006       -17.5787
  46   1.0000      -0.644091       -17.5266
  47   1.0000      -0.628251       -17.0956
  48   1.0000      -0.607354       -16.5269
  49   1.0000      -0.592352       -16.1187
  50   1.0000      -0.571284       -15.5454
  51   1.0000      -0.564378       -15.3575
  52   1.0000      -0.528281       -14.3753
  53   1.0000      -0.510191       -13.8830
  54   1.0000      -0.499831       -13.6011
  55   1.0000      -0.498311       -13.5597
  56   1.0000      -0.486642       -13.2422
  57   1.0000      -0.479468       -13.0470
  58   1.0000      -0.477037       -12.9808
  59   1.0000      -0.467306       -12.7160
  60   1.0000      -0.464536       -12.6407
  61   1.0000      -0.450575       -12.2608
  62   1.0000      -0.449027       -12.2186
  63   1.0000      -0.445279       -12.1167
  64   1.0000      -0.445096       -12.1117
  65   1.0000      -0.444270       -12.0892
  66   1.0000      -0.432662       -11.7733
  67   1.0000      -0.419125       -11.4050
  68   1.0000      -0.413899       -11.2628
  69   1.0000      -0.405515       -11.0346
  70   1.0000      -0.403274       -10.9736
  71   1.0000      -0.388973       -10.5845
  72   1.0000      -0.385078       -10.4785
  73   1.0000      -0.370677       -10.0866
  74   1.0000      -0.368728       -10.0336
  75   1.0000      -0.366191        -9.9646
  76   1.0000      -0.339192        -9.2299
  77   1.0000      -0.338568        -9.2129
  78   1.0000      -0.335956        -9.1418
  79   1.0000      -0.325288        -8.8515
  80   1.0000      -0.320092        -8.7101
  81   1.0000      -0.311414        -8.4740
  82   1.0000      -0.306173        -8.3314
  83   1.0000      -0.285969        -7.7816
  84   1.0000      -0.281364        -7.6563
  85   1.0000      -0.232734        -6.3330
  86   1.0000      -0.230602        -6.2750
  87   0.0000      -0.060873        -1.6564
  88   0.0000      -0.048218        -1.3121
  89   0.0000      -0.020490        -0.5576
  90   0.0000      -0.017495        -0.4761
  91   0.0000       0.001011         0.0275

                 SPIN DOWN ORBITALS
  NO   OCC          E(Eh)            E(eV)
   0   1.0000     -89.034403     -2422.7493
   1   1.0000     -89.032555     -2422.6990
   2   1.0000     -19.320136      -525.7276
   3   1.0000     -19.319858      -525.7201
   4   1.0000     -19.214419      -522.8509
   5   1.0000     -19.209702      -522.7226
   6   1.0000     -10.371339      -282.2185
   7   1.0000     -10.367101      -282.1032
   8   1.0000     -10.276805      -279.6461
   9   1.0000     -10.274479      -279.5828
  10   1.0000     -10.251238      -278.9504
  11   1.0000     -10.249820      -278.9118
  12   1.0000     -10.245074      -278.7826
  13   1.0000     -10.244500      -278.7670
  14   1.0000     -10.243004      -278.7263
  15   1.0000     -10.242956      -278.7250
  16   1.0000     -10.242433      -278.7108
  17   1.0000     -10.242332      -278.7080
  18   1.0000     -10.237263      -278.5701
  19   1.0000     -10.236749      -278.5561
  20   1.0000     -10.236146      -278.5397
  21   1.0000     -10.236059      -278.5373
  22   1.0000      -8.013155      -218.0490
  23   1.0000      -8.011305      -217.9987
  24   1.0000      -5.949629      -161.8976
  25   1.0000      -5.947815      -161.8483
  26   1.0000      -5.945955      -161.7977
  27   1.0000      -5.944161      -161.7488
  28   1.0000      -5.942205      -161.6956
  29   1.0000      -5.940272      -161.6430
  30   1.0000      -1.235220       -33.6120
  31   1.0000      -1.122849       -30.5543
  32   1.0000      -1.089880       -29.6572
  33   1.0000      -0.993134       -27.0245
  34   1.0000      -0.910976       -24.7889
  35   1.0000      -0.909745       -24.7554
  36   1.0000      -0.843992       -22.9662
  37   1.0000      -0.842176       -22.9168
  38   1.0000      -0.789955       -21.4958
  39   1.0000      -0.787727       -21.4351
  40   1.0000      -0.781659       -21.2700
  41   1.0000      -0.779187       -21.2027
  42   1.0000      -0.711514       -19.3613
  43   1.0000      -0.696321       -18.9479
  44   1.0000      -0.663661       -18.0591
  45   1.0000      -0.646006       -17.5787
  46   1.0000      -0.644091       -17.5266
  47   1.0000      -0.628251       -17.0956
  48   1.0000      -0.607354       -16.5269
  49   1.0000      -0.592352       -16.1187
  50   1.0000      -0.571284       -15.5454
  51   1.0000      -0.564378       -15.3575
  52   1.0000      -0.528281       -14.3753
  53   1.0000      -0.510191       -13.8830
  54   1.0000      -0.499831       -13.6011
  55   1.0000      -0.498311       -13.5597
  56   1.0000      -0.486642       -13.2422
  57   1.0000      -0.479468       -13.0470
  58   1.0000      -0.477037       -12.9808
  59   1.0000      -0.467306       -12.7160
  60   1.0000      -0.464536       -12.6407
  61   1.0000      -0.450575       -12.2608
  62   1.0000      -0.449027       -12.2186
  63   1.0000      -0.445279       -12.1167
  64   1.0000      -0.445096       -12.1117
  65   1.0000      -0.444270       -12.0892
  66   1.0000      -0.432662       -11.7733
  67   1.0000      -0.419125       -11.4050
  68   1.0000      -0.413899       -11.2628
  69   1.0000      -0.405515       -11.0346
  70   1.0000      -0.403274       -10.9736
  71   1.0000      -0.388973       -10.5845
  72   1.0000      -0.385078       -10.4785
  73   1.0000      -0.370677       -10.0866
  74   1.0000      -0.368728       -10.0336
  75   1.0000      -0.366191        -9.9646
  76   1.0000      -0.339192        -9.2299
  77   1.0000      -0.338568        -9.2129
  78   1.0000      -0.335956        -9.1418
  79   1.0000      -0.325288        -8.8515
  80   1.0000      -0.320092        -8.7101
  81   1.0000      -0.311414        -8.4740
  82   1.0000      -0.306173        -8.3314
  83   1.0000      -0.285969        -7.7816
  84   1.0000      -0.281364        -7.6563
  85   1.0000      -0.232734        -6.3330
  86   1.0000      -0.230602        -6.2750
  87   0.0000      -0.060873        -1.6564
  88   0.0000      -0.048218        -1.3121
  89   0.0000      -0.020490        -0.5576
  90   0.0000      -0.017495        -0.4761
  91   0.0000       0.001011         0.0275

MULLIKEN ATOMIC CHARGES AND SPIN POPULATIONS
--------------------------------------------
   0 C :   -0.419479    0.000000
   1 S :   -0.059632    0.000000
   2 C :    0.158158    0.000000
   3 C :   -0.230020    0.000000
   4 C :   -0.235189    0.000000
   5 C :    0.147015    0.000000
   6 C :   -0.259850    0.000000
   7 C :   -0.190910    0.000000
   8 C :    0.273181    0.000000
   9 O :   -0.081673    0.000000
  10 O :   -0.302331    0.000000
  11 O :   -0.114073    0.000000
  12 C :    0.283899    0.000000
  13 C :    0.118968    0.000000
  14 O :   -0.314078    0.000000
  15 C :   -0.241550    0.000000
  16 C :   -0.185155    0.000000
  17 C :    0.167917    0.000000
  18 C :   -0.239386    0.000000
  19 C :   -0.228154    0.000000
  20 S :   -0.051764    0.000000
  21 C :   -0.419459    0.000000
  22 H :    0.190421    0.000000
  23 H :    0.175747    0.000000
  24 H :    0.175494    0.000000
  25 H :    0.172412    0.000000
  26 H :    0.167419    0.000000
  27 H :    0.166849    0.000000
  28 H :    0.161137    0.000000
  29 H :    0.163155    0.000000
  30 H :    0.160973    0.000000
  31 H :    0.172251    0.000000
  32 H :    0.173834    0.000000
  33 H :    0.191256    0.000000
  34 H :    0.176306    0.000000
  35 H :    0.176313    0.000000
Sum of atomic charges         :   -0.0000000

LOEWDIN ATOMIC CHARGES AND SPIN POPULATIONS
-------------------------------------------
   0 C :   -0.506557    0.000000
   1 S :    0.574109    0.000000
   2 C :   -0.372737    0.000000
   3 C :   -0.139892    0.000000
   4 C :   -0.091543    0.000000
   5 C :   -0.155079    0.000000
   6 C :   -0.088093    0.000000
   7 C :   -0.143624    0.000000
   8 C :   -0.445779    0.000000
   9 O :    0.214915    0.000000
  10 O :    0.133066    0.000000
  11 O :    0.211411    0.000000
  12 C :   -0.472601    0.000000
  13 C :   -0.150617    0.000000
  14 O :    0.120550    0.000000
  15 C :   -0.082317    0.000000
  16 C :   -0.143419    0.000000
  17 C :   -0.369822    0.000000
  18 C :   -0.140721    0.000000
  19 C :   -0.088646    0.000000
  20 S :    0.582499    0.000000
  21 C :   -0.505238    0.000000
  22 H :    0.129597    0.000000
  23 H :    0.121650    0.000000
  24 H :    0.121490    0.000000
  25 H :    0.163567    0.000000
  26 H :    0.166981    0.000000
  27 H :    0.167179    0.000000
  28 H :    0.160037    0.000000
  29 H :    0.166573    0.000000
  30 H :    0.160216    0.000000
  31 H :    0.162923    0.000000
  32 H :    0.165674    0.000000
  33 H :    0.130045    0.000000
  34 H :    0.122112    0.000000
  35 H :    0.122089    0.000000

  Mayer bond orders larger than 0.100000
B(  0-C ,  1-S ) :   1.0641 B(  0-C , 22-H ) :   0.9365 B(  0-C , 23-H ) :   0.9486
B(  0-C , 24-H ) :   0.9469 B(  1-S ,  2-C ) :   1.1840 B(  2-C ,  3-C ) :   1.2797
B(  2-C ,  7-C ) :   1.2765 B(  3-C ,  4-C ) :   1.4529 B(  3-C , 25-H ) :   0.9607
B(  4-C ,  5-C ) :   1.3119 B(  4-C , 26-H ) :   0.9410 B(  5-C ,  6-C ) :   1.3053
B(  5-C ,  8-C ) :   0.9603 B(  6-C ,  7-C ) :   1.4762 B(  6-C , 27-H ) :   0.9785
B(  7-C , 28-H ) :   0.9750 B(  8-C ,  9-O ) :   1.1173 B(  8-C , 10-O ) :   2.1351
B(  9-O , 11-O ) :   0.8166 B( 11-O , 12-C ) :   1.1006 B( 12-C , 13-C ) :   0.9889
B( 12-C , 14-O ) :   2.0761 B( 13-C , 15-C ) :   1.2873 B( 13-C , 19-C ) :   1.3195
B( 15-C , 16-C ) :   1.4907 B( 15-C , 29-H ) :   0.9750 B( 16-C , 17-C ) :   1.2596
B( 16-C , 30-H ) :   0.9767 B( 17-C , 18-C ) :   1.2831 B( 17-C , 20-S ) :   1.1960
B( 18-C , 19-C ) :   1.4521 B( 18-C , 31-H ) :   0.9608 B( 19-C , 32-H ) :   0.9588
B( 20-S , 21-C ) :   1.0638 B( 21-C , 33-H ) :   0.9361 B( 21-C , 34-H ) :   0.9477
B( 21-C , 35-H ) :   0.9476

Dispersion correction           -0.044306165
FINAL SINGLE POINT ENERGY     -1714.465458072551

DIPOLE MOMENT
-------------
                                X             Y             Z
Electronic contribution:     -0.84053      -8.72021     -13.45594
Nuclear contribution   :      1.41087      10.56316      17.33728
                        -----------------------------------------
Total Dipole Moment    :      0.57034       1.84295       3.88134
                        -----------------------------------------
Magnitude (a.u.)       :      4.33434
Magnitude (Debye)      :     11.01703

Rotational constants in cm-1:     0.008909     0.005388     0.003674
Rotational constants in MHz :   267.071308   161.532813   110.156578

                             ****ORCA TERMINATED NORMALLY****
TOTAL RUN TIME: 0 days 0 hours 55 minutes 5 seconds 843 msec
