                         Program Version 5.0.3 -  RELEASE  -
|  1> ! UKS wB97X-V def2-TZVP TIGHTSCF Opt CPCM PAL8
|  2> %maxcore 5000
|  3> %cpcm
|  4> smd true
|  5> SMDsolvent "N-METHYLFORMAMIDE"
|  6> end
|  7> * xyz 0 1
|  8>  C -0.07425707479814 6.45007760366319 3.54636897867849
|  9>  S 1.48979584793712 6.08048225687873 2.75598260255209
| 10>  C 1.14936654141856 4.63662227087222 1.83369205968326
| 11>  C -0.09136557109480 4.00305286554088 1.79338352444578
| 12>  C -0.25826928718407 2.84269542505768 1.05936282240646
| 13>  C 0.80050967676942 2.30271389692801 0.33923873907232
| 14>  C 2.02875697338567 2.96040825022008 0.34201900047512
| 15>  C 2.20764771123846 4.10330343094754 1.09121055149825
| 16>  C 0.66254428710301 1.09941809961861 -0.50690159852297
| 17>  O 0.00000000000000 0.00000000000000 0.00000000000000
| 18>  O 1.06713866538631 0.98717129960580 -1.62357736506780
| 19>  O 0.00000000000000 0.00000000000000 1.41527284498687
| 20>  C -1.27388770944479 0.00000000000000 1.91590645535523
| 21>  C -1.22211457253867 0.06642777988277 3.38831477989974
| 22>  O -2.25742922897412 -0.02585779042736 1.23875652957256
| 23>  C -2.41543940252313 -0.12289611375011 4.08595252694906
| 24>  C -2.44195923478874 -0.03437680070658 5.45887710053507
| 25>  C -1.27275068522395 0.25496212808386 6.17298493884884
| 26>  C -0.08177795586127 0.45060655108151 5.47518008098465
| 27>  C -0.05890441770979 0.35440376081578 4.09544628781756
| 28>  S -1.42666733932306 0.34986111841343 7.90788531117200
| 29>  C 0.24316058065577 0.68495422113854 8.46194522255982
| 30>  H 0.10416325535368 7.34607684664392 4.14087383255362
| 31>  H -0.38882275224257 5.64387294862163 4.21002028523424
| 32>  H -0.85323854703301 6.66443357654391 2.81385647784552
| 33>  H -0.93700004363157 4.40513362395569 2.33421606140266
| 34>  H -1.23507439683237 2.37497021944690 1.02749021968162
| 35>  H 2.84544686618639 2.55882587909200 -0.24576673820719
| 36>  H 3.17295340310622 4.59670965109571 1.10248346369500
| 37>  H -3.31769085302541 -0.33900022625314 3.52707230389961
| 38>  H -3.37188538809726 -0.18808364875198 5.99464715790180
| 39>  H 0.83479761044422 0.68252071425859 5.99988733430662
| 40>  H 0.87046926144621 0.51883617942438 3.56602510045047
| 41>  H 0.18454114424639 0.73729393679500 9.54909076814075
| 42>  H 0.60864534290486 1.64029462399245 8.08374213903351
| 43>  H 0.92507514742305 -0.11949528816653 8.18458994466104
| 44> *
| 45>
| 46>                          ****END OF INPUT****
 Total Charge           Charge          ....    0
 Multiplicity           Mult            ....    1
 Number of Electrons    NEL             ....  174
FINAL SINGLE POINT ENERGY     -1715.355028710199
FINAL SINGLE POINT ENERGY     -1715.355485034248
FINAL SINGLE POINT ENERGY     -1715.355164309809
FINAL SINGLE POINT ENERGY     -1715.356135875661
FINAL SINGLE POINT ENERGY     -1715.355937925156
FINAL SINGLE POINT ENERGY     -1715.356172487153
FINAL SINGLE POINT ENERGY     -1715.356180081731
FINAL SINGLE POINT ENERGY     -1715.356141595131
FINAL SINGLE POINT ENERGY     -1715.356165958498
FINAL SINGLE POINT ENERGY     -1715.356175396298
FINAL SINGLE POINT ENERGY     -1715.356178338092
FINAL SINGLE POINT ENERGY     -1715.356180715957
                    ***********************HURRAY********************

CARTESIAN COORDINATES (ANGSTROEM)
---------------------------------
  C      0.076203    6.207940    3.878851
  S      1.588012    5.911979    2.955826
  C      1.193880    4.530081    1.943469
  C     -0.070713    3.939597    1.894499
  C     -0.288745    2.831442    1.089740
  C      0.743908    2.312932    0.313435
  C      1.998271    2.923181    0.329477
  C      2.225028    4.014721    1.148291
  C      0.545080    1.155464   -0.588376
  O     -0.054203    0.008474   -0.098840
  O      0.852426    1.102788   -1.748229
  O     -0.020063   -0.029055    1.312965
  C     -1.288544   -0.116007    1.838328
  C     -1.232522   -0.005343    3.309923
  O     -2.268451   -0.254093    1.157670
  C     -2.370590   -0.360916    4.039688
  C     -2.382950   -0.227210    5.413234
  C     -1.260031    0.276858    6.086345
  C     -0.123395    0.630171    5.356484
  C     -0.111394    0.487573    3.976755
  S     -1.389270    0.428175    7.829574
  C      0.180704    1.151083    8.314393
  H      0.298334    7.045662    4.543832
  H     -0.198055    5.342082    4.485005
  H     -0.749277    6.491947    3.223466
  H     -0.894640    4.328982    2.480470
  H     -1.281158    2.391232    1.054352
  H      2.801205    2.527351   -0.285076
  H      3.211249    4.469883    1.173776
  H     -3.245035   -0.743245    3.522999
  H     -3.271084   -0.508168    5.972386
  H      0.758261    1.022855    5.848480
  H      0.776081    0.779870    3.425623
  H      0.120814    1.280282    9.397541
  H      0.329396    2.129085    7.852705
  H      1.017743    0.488766    8.086466

 Multiplicity           Mult            ....    1
 Number of Electrons    NEL             ....  174
 Basis Dimension        Dim             ....  778

ORBITAL ENERGIES
----------------
                 SPIN UP ORBITALS
  NO   OCC          E(Eh)            E(eV)
   0   1.0000     -88.868253     -2418.2281
   1   1.0000     -88.866672     -2418.1851
   2   1.0000     -19.335376      -526.1423
   3   1.0000     -19.334350      -526.1144
   4   1.0000     -19.232043      -523.3305
   5   1.0000     -19.227548      -523.2082
   6   1.0000     -10.432997      -283.8963
   7   1.0000     -10.428528      -283.7747
   8   1.0000     -10.324232      -280.9366
   9   1.0000     -10.321636      -280.8660
  10   1.0000     -10.299730      -280.2699
  11   1.0000     -10.298033      -280.2237
  12   1.0000     -10.293264      -280.0940
  13   1.0000     -10.292976      -280.0861
  14   1.0000     -10.291564      -280.0477
  15   1.0000     -10.291368      -280.0424
  16   1.0000     -10.288576      -279.9664
  17   1.0000     -10.288153      -279.9549
  18   1.0000     -10.283459      -279.8271
  19   1.0000     -10.283265      -279.8219
  20   1.0000     -10.282844      -279.8104
  21   1.0000     -10.282496      -279.8009
  22   1.0000      -8.046735      -218.9628
  23   1.0000      -8.045133      -218.9192
  24   1.0000      -6.002881      -163.3467
  25   1.0000      -6.001307      -163.3039
  26   1.0000      -5.998644      -163.2314
  27   1.0000      -5.997094      -163.1892
  28   1.0000      -5.994103      -163.1078
  29   1.0000      -5.992425      -163.0622
  30   1.0000      -1.345563       -36.6146
  31   1.0000      -1.233467       -33.5644
  32   1.0000      -1.200244       -32.6603
  33   1.0000      -1.100647       -29.9501
  34   1.0000      -1.021461       -27.7954
  35   1.0000      -1.020039       -27.7567
  36   1.0000      -0.952762       -25.9260
  37   1.0000      -0.950763       -25.8716
  38   1.0000      -0.898723       -24.4555
  39   1.0000      -0.896404       -24.3924
  40   1.0000      -0.889816       -24.2131
  41   1.0000      -0.887309       -24.1449
  42   1.0000      -0.817240       -22.2382
  43   1.0000      -0.801853       -21.8195
  44   1.0000      -0.767640       -20.8886
  45   1.0000      -0.750859       -20.4319
  46   1.0000      -0.748881       -20.3781
  47   1.0000      -0.732971       -19.9452
  48   1.0000      -0.709889       -19.3171
  49   1.0000      -0.697034       -18.9673
  50   1.0000      -0.676972       -18.4213
  51   1.0000      -0.667537       -18.1646
  52   1.0000      -0.635551       -17.2942
  53   1.0000      -0.615475       -16.7479
  54   1.0000      -0.601015       -16.3545
  55   1.0000      -0.597782       -16.2665
  56   1.0000      -0.583467       -15.8770
  57   1.0000      -0.581784       -15.8312
  58   1.0000      -0.577646       -15.7185
  59   1.0000      -0.565910       -15.3992
  60   1.0000      -0.562920       -15.3178
  61   1.0000      -0.552159       -15.0250
  62   1.0000      -0.546395       -14.8682
  63   1.0000      -0.541817       -14.7436
  64   1.0000      -0.541451       -14.7336
  65   1.0000      -0.540664       -14.7122
  66   1.0000      -0.530652       -14.4398
  67   1.0000      -0.512993       -13.9593
  68   1.0000      -0.508493       -13.8368
  69   1.0000      -0.505235       -13.7481
  70   1.0000      -0.502029       -13.6609
  71   1.0000      -0.477860       -13.0032
  72   1.0000      -0.473864       -12.8945
  73   1.0000      -0.469136       -12.7658
  74   1.0000      -0.459545       -12.5048
  75   1.0000      -0.458025       -12.4635
  76   1.0000      -0.437284       -11.8991
  77   1.0000      -0.427667       -11.6374
  78   1.0000      -0.425809       -11.5869
  79   1.0000      -0.419082       -11.4038
  80   1.0000      -0.416552       -11.3350
  81   1.0000      -0.402998       -10.9661
  82   1.0000      -0.398380       -10.8405
  83   1.0000      -0.367186        -9.9916
  84   1.0000      -0.361490        -9.8366
  85   1.0000      -0.310204        -8.4411
  86   1.0000      -0.308646        -8.3987
  87   0.0000       0.010346         0.2815
  88   0.0000       0.025508         0.6941
  89   0.0000       0.055297         1.5047
  90   0.0000       0.058675         1.5966
  91   0.0000       0.084874         2.3095

                 SPIN DOWN ORBITALS
  NO   OCC          E(Eh)            E(eV)
   0   1.0000     -88.868253     -2418.2281
   1   1.0000     -88.866672     -2418.1851
   2   1.0000     -19.335376      -526.1423
   3   1.0000     -19.334350      -526.1144
   4   1.0000     -19.232043      -523.3305
   5   1.0000     -19.227548      -523.2082
   6   1.0000     -10.432997      -283.8963
   7   1.0000     -10.428528      -283.7747
   8   1.0000     -10.324232      -280.9366
   9   1.0000     -10.321636      -280.8660
  10   1.0000     -10.299730      -280.2699
  11   1.0000     -10.298033      -280.2237
  12   1.0000     -10.293264      -280.0940
  13   1.0000     -10.292976      -280.0861
  14   1.0000     -10.291564      -280.0477
  15   1.0000     -10.291368      -280.0424
  16   1.0000     -10.288576      -279.9664
  17   1.0000     -10.288153      -279.9549
  18   1.0000     -10.283459      -279.8271
  19   1.0000     -10.283265      -279.8219
  20   1.0000     -10.282844      -279.8104
  21   1.0000     -10.282496      -279.8009
  22   1.0000      -8.046735      -218.9628
  23   1.0000      -8.045133      -218.9192
  24   1.0000      -6.002881      -163.3467
  25   1.0000      -6.001307      -163.3039
  26   1.0000      -5.998644      -163.2314
  27   1.0000      -5.997094      -163.1892
  28   1.0000      -5.994103      -163.1078
  29   1.0000      -5.992425      -163.0622
  30   1.0000      -1.345563       -36.6146
  31   1.0000      -1.233467       -33.5644
  32   1.0000      -1.200244       -32.6603
  33   1.0000      -1.100647       -29.9501
  34   1.0000      -1.021461       -27.7954
  35   1.0000      -1.020039       -27.7567
  36   1.0000      -0.952762       -25.9260
  37   1.0000      -0.950763       -25.8716
  38   1.0000      -0.898723       -24.4555
  39   1.0000      -0.896404       -24.3924
  40   1.0000      -0.889816       -24.2131
  41   1.0000      -0.887309       -24.1449
  42   1.0000      -0.817240       -22.2382
  43   1.0000      -0.801853       -21.8195
  44   1.0000      -0.767640       -20.8886
  45   1.0000      -0.750859       -20.4319
  46   1.0000      -0.748881       -20.3781
  47   1.0000      -0.732971       -19.9452
  48   1.0000      -0.709889       -19.3171
  49   1.0000      -0.697034       -18.9673
  50   1.0000      -0.676972       -18.4213
  51   1.0000      -0.667537       -18.1646
  52   1.0000      -0.635551       -17.2942
  53   1.0000      -0.615475       -16.7479
  54   1.0000      -0.601015       -16.3545
  55   1.0000      -0.597782       -16.2665
  56   1.0000      -0.583467       -15.8770
  57   1.0000      -0.581784       -15.8312
  58   1.0000      -0.577646       -15.7185
  59   1.0000      -0.565910       -15.3992
  60   1.0000      -0.562920       -15.3178
  61   1.0000      -0.552159       -15.0250
  62   1.0000      -0.546395       -14.8682
  63   1.0000      -0.541817       -14.7436
  64   1.0000      -0.541451       -14.7336
  65   1.0000      -0.540664       -14.7122
  66   1.0000      -0.530652       -14.4398
  67   1.0000      -0.512993       -13.9593
  68   1.0000      -0.508493       -13.8368
  69   1.0000      -0.505235       -13.7481
  70   1.0000      -0.502029       -13.6609
  71   1.0000      -0.477860       -13.0032
  72   1.0000      -0.473864       -12.8945
  73   1.0000      -0.469136       -12.7658
  74   1.0000      -0.459545       -12.5048
  75   1.0000      -0.458025       -12.4635
  76   1.0000      -0.437284       -11.8991
  77   1.0000      -0.427667       -11.6374
  78   1.0000      -0.425809       -11.5869
  79   1.0000      -0.419082       -11.4038
  80   1.0000      -0.416552       -11.3350
  81   1.0000      -0.402998       -10.9661
  82   1.0000      -0.398380       -10.8405
  83   1.0000      -0.367186        -9.9916
  84   1.0000      -0.361490        -9.8366
  85   1.0000      -0.310204        -8.4411
  86   1.0000      -0.308646        -8.3987
  87   0.0000       0.010346         0.2815
  88   0.0000       0.025508         0.6941
  89   0.0000       0.055297         1.5047
  90   0.0000       0.058675         1.5966
  91   0.0000       0.084874         2.3095

MULLIKEN ATOMIC CHARGES AND SPIN POPULATIONS
--------------------------------------------
   0 C :   -0.411891    0.000000
   1 S :   -0.038306    0.000000
   2 C :    0.122666    0.000000
   3 C :   -0.231108    0.000000
   4 C :   -0.238273    0.000000
   5 C :    0.107514    0.000000
   6 C :   -0.254877    0.000000
   7 C :   -0.187414    0.000000
   8 C :    0.332391    0.000000
   9 O :   -0.096253    0.000000
  10 O :   -0.352693    0.000000
  11 O :   -0.105296    0.000000
  12 C :    0.343601    0.000000
  13 C :    0.103504    0.000000
  14 O :   -0.368872    0.000000
  15 C :   -0.233910    0.000000
  16 C :   -0.186978    0.000000
  17 C :    0.131550    0.000000
  18 C :   -0.238220    0.000000
  19 C :   -0.238714    0.000000
  20 S :   -0.031483    0.000000
  21 C :   -0.412173    0.000000
  22 H :    0.184199    0.000000
  23 H :    0.167448    0.000000
  24 H :    0.167654    0.000000
  25 H :    0.183798    0.000000
  26 H :    0.191598    0.000000
  27 H :    0.182480    0.000000
  28 H :    0.170800    0.000000
  29 H :    0.176038    0.000000
  30 H :    0.170644    0.000000
  31 H :    0.183306    0.000000
  32 H :    0.185351    0.000000
  33 H :    0.184992    0.000000
  34 H :    0.168615    0.000000
  35 H :    0.168309    0.000000
Sum of atomic charges         :   -0.0000000

LOEWDIN ATOMIC CHARGES AND SPIN POPULATIONS
-------------------------------------------
   0 C :   -0.499079    0.000000
   1 S :    0.556216    0.000000
   2 C :   -0.361114    0.000000
   3 C :   -0.137904    0.000000
   4 C :   -0.084574    0.000000
   5 C :   -0.153441    0.000000
   6 C :   -0.082418    0.000000
   7 C :   -0.141282    0.000000
   8 C :   -0.407055    0.000000
   9 O :    0.204272    0.000000
  10 O :    0.100087    0.000000
  11 O :    0.211936    0.000000
  12 C :   -0.434731    0.000000
  13 C :   -0.149147    0.000000
  14 O :    0.087447    0.000000
  15 C :   -0.075727    0.000000
  16 C :   -0.141739    0.000000
  17 C :   -0.357268    0.000000
  18 C :   -0.138880    0.000000
  19 C :   -0.081099    0.000000
  20 S :    0.563728    0.000000
  21 C :   -0.498016    0.000000
  22 H :    0.125315    0.000000
  23 H :    0.117162    0.000000
  24 H :    0.116554    0.000000
  25 H :    0.161332    0.000000
  26 H :    0.167226    0.000000
  27 H :    0.166296    0.000000
  28 H :    0.157593    0.000000
  29 H :    0.164848    0.000000
  30 H :    0.157747    0.000000
  31 H :    0.160744    0.000000
  32 H :    0.164436    0.000000
  33 H :    0.125711    0.000000
  34 H :    0.117688    0.000000
  35 H :    0.117137    0.000000

  Mayer bond orders larger than 0.100000
B(  0-C ,  1-S ) :   1.0621 B(  0-C , 22-H ) :   0.9465 B(  0-C , 23-H ) :   0.9572
B(  0-C , 24-H ) :   0.9558 B(  1-S ,  2-C ) :   1.2050 B(  2-C ,  3-C ) :   1.2947
B(  2-C ,  7-C ) :   1.2931 B(  3-C ,  4-C ) :   1.4555 B(  3-C , 25-H ) :   0.9653
B(  4-C ,  5-C ) :   1.3275 B(  4-C , 26-H ) :   0.9340 B(  5-C ,  6-C ) :   1.3359
B(  5-C ,  8-C ) :   0.9443 B(  6-C ,  7-C ) :   1.4845 B(  6-C , 27-H ) :   0.9704
B(  7-C , 28-H ) :   0.9732 B(  8-C ,  9-O ) :   1.1173 B(  8-C , 10-O ) :   2.1214
B(  9-O , 11-O ) :   0.8268 B( 11-O , 12-C ) :   1.1205 B( 12-C , 13-C ) :   0.9776
B( 12-C , 14-O ) :   2.0527 B( 13-C , 15-C ) :   1.3011 B( 13-C , 19-C ) :   1.3290
B( 15-C , 16-C ) :   1.5071 B( 15-C , 29-H ) :   0.9673 B( 16-C , 17-C ) :   1.2752
B( 16-C , 30-H ) :   0.9747 B( 17-C , 18-C ) :   1.3013 B( 17-C , 20-S ) :   1.2170
B( 18-C , 19-C ) :   1.4570 B( 18-C , 31-H ) :   0.9620 B( 19-C , 32-H ) :   0.9606
B( 20-S , 21-C ) :   1.0621 B( 21-C , 33-H ) :   0.9460 B( 21-C , 34-H ) :   0.9568
B( 21-C , 35-H ) :   0.9562

FINAL SINGLE POINT ENERGY     -1715.356180519844

DIPOLE MOMENT
-------------
                                X             Y             Z
Electronic contribution:     -0.76648      -8.82514     -13.64342
Nuclear contribution   :      1.38726      10.57625      17.53095
                        -----------------------------------------
Total Dipole Moment    :      0.62077       1.75110       3.88753
                        -----------------------------------------
Magnitude (a.u.)       :      4.30866
Magnitude (Debye)      :     10.95176

Rotational constants in cm-1:     0.008889     0.005432     0.003685
Rotational constants in MHz :   266.493685   162.840274   110.463979

                             ****ORCA TERMINATED NORMALLY****
TOTAL RUN TIME: 0 days 1 hours 51 minutes 10 seconds 190 msec
