                         Program Version 5.0.3 -  RELEASE  -
|  1> ! UKS PBE0 def2-TZVP def2/J RIJCOSX D3BJ TIGHTSCF Opt CPCM PAL8
|  2> %maxcore 5000
|  3> %cpcm
|  4> smd true
|  5> SMDsolvent "N-METHYLFORMAMIDE"
|  6> end
|  7> * xyz 0 2
|  8>  C -0.07425707479814 6.45007760366319 3.54636897867849
|  9>  S 1.48979584793712 6.08048225687873 2.75598260255209
| 10>  C 1.14936654141856 4.63662227087222 1.83369205968326
| 11>  C -0.09136557109480 4.00305286554088 1.79338352444578
| 12>  C -0.25826928718407 2.84269542505768 1.05936282240646
| 13>  C 0.80050967676942 2.30271389692801 0.33923873907232
| 14>  C 2.02875697338567 2.96040825022008 0.34201900047512
| 15>  C 2.20764771123846 4.10330343094754 1.09121055149825
| 16>  C 0.66254428710301 1.09941809961861 -0.50690159852297
| 17>  O 0.00000000000000 0.00000000000000 0.00000000000000
| 18>  O 1.06713866538631 0.98717129960580 -1.62357736506780
| 19>  H 0.10416325535368 7.34607684664392 4.14087383255362
| 20>  H -0.38882275224257 5.64387294862163 4.21002028523424
| 21>  H -0.85323854703301 6.66443357654391 2.81385647784552
| 22>  H -0.93700004363157 4.40513362395569 2.33421606140266
| 23>  H -1.23507439683237 2.37497021944690 1.02749021968162
| 24>  H 2.84544686618639 2.55882587909200 -0.24576673820719
| 25>  H 3.17295340310622 4.59670965109571 1.10248346369500
| 26> *
| 27>
| 28>                          ****END OF INPUT****
 Total Charge           Charge          ....    0
 Multiplicity           Mult            ....    2
 Number of Electrons    NEL             ....   87
Dispersion correction           -0.018780886
FINAL SINGLE POINT ENERGY      -857.200274567726
Dispersion correction            ... done
Dispersion correction           -0.018849032
FINAL SINGLE POINT ENERGY      -857.213201523581
Dispersion correction            ... done
Dispersion correction           -0.018941997
FINAL SINGLE POINT ENERGY      -857.220082863734
Dispersion correction            ... done
FINAL SINGLE POINT ENERGY      -857.223272476052
FINAL SINGLE POINT ENERGY      -857.223788849913
FINAL SINGLE POINT ENERGY      -857.224671016503
FINAL SINGLE POINT ENERGY      -857.224683861312
FINAL SINGLE POINT ENERGY      -857.224706867767
FINAL SINGLE POINT ENERGY      -857.224793914216
Dispersion correction            ... done
Dispersion correction           -0.018885178
FINAL SINGLE POINT ENERGY      -857.224792957936
Dispersion correction            ... done
Dispersion correction           -0.018886061
FINAL SINGLE POINT ENERGY      -857.224792872583
Dispersion correction            ... done
                    ***********************HURRAY********************

CARTESIAN COORDINATES (ANGSTROEM)
---------------------------------
  C     -0.066046    6.452923    3.539837
  S      1.447314    6.024886    2.709914
  C      1.121891    4.618208    1.824736
  C     -0.136304    3.980273    1.784611
  C     -0.278876    2.838950    1.044305
  C      0.803803    2.314129    0.316394
  C      2.050131    2.958383    0.349271
  C      2.219413    4.090006    1.097521
  C      0.623417    1.058719   -0.491053
  O      0.077340    0.103093    0.097091
  O      1.037530    1.093225   -1.666647
  H      0.162657    7.349832    4.116264
  H     -0.370574    5.650219    4.212936
  H     -0.850023    6.671910    2.813916
  H     -0.976248    4.382194    2.334725
  H     -1.233710    2.328287    1.013629
  H      2.876806    2.552210   -0.220586
  H      3.181777    4.588521    1.137090

 Multiplicity           Mult            ....    2
 Number of Electrons    NEL             ....   87
 Basis Dimension        Dim             ....  389

ORBITAL ENERGIES
----------------
                 SPIN UP ORBITALS
  NO   OCC          E(Eh)            E(eV)
   0   1.0000     -89.105397     -2424.6811
   1   1.0000     -19.170869      -521.6659
   2   1.0000     -19.170239      -521.6487
   3   1.0000     -10.325273      -280.9650
   4   1.0000     -10.311705      -280.5958
   5   1.0000     -10.275499      -279.6105
   6   1.0000     -10.269055      -279.4352
   7   1.0000     -10.265476      -279.3378
   8   1.0000     -10.265359      -279.3346
   9   1.0000     -10.256322      -279.0887
  10   1.0000     -10.253642      -279.0158
  11   1.0000      -8.082288      -219.9302
  12   1.0000      -6.018067      -163.7599
  13   1.0000      -6.016882      -163.7277
  14   1.0000      -6.012806      -163.6168
  15   1.0000      -1.084491       -29.5105
  16   1.0000      -0.993654       -27.0387
  17   1.0000      -0.940482       -25.5918
  18   1.0000      -0.881260       -23.9803
  19   1.0000      -0.810844       -22.0642
  20   1.0000      -0.799715       -21.7613
  21   1.0000      -0.718452       -19.5501
  22   1.0000      -0.661357       -17.9964
  23   1.0000      -0.639345       -17.3974
  24   1.0000      -0.589139       -16.0313
  25   1.0000      -0.528269       -14.3749
  26   1.0000      -0.520483       -14.1631
  27   1.0000      -0.489135       -13.3100
  28   1.0000      -0.481462       -13.1012
  29   1.0000      -0.479550       -13.0492
  30   1.0000      -0.467499       -12.7213
  31   1.0000      -0.457531       -12.4500
  32   1.0000      -0.443321       -12.0634
  33   1.0000      -0.435846       -11.8600
  34   1.0000      -0.424012       -11.5380
  35   1.0000      -0.416473       -11.3328
  36   1.0000      -0.389065       -10.5870
  37   1.0000      -0.372783       -10.1439
  38   1.0000      -0.356593        -9.7034
  39   1.0000      -0.306708        -8.3459
  40   1.0000      -0.294611        -8.0168
  41   1.0000      -0.291768        -7.9394
  42   1.0000      -0.285129        -7.7587
  43   1.0000      -0.262531        -7.1438
  44   0.0000      -0.057616        -1.5678
  45   0.0000      -0.035110        -0.9554
  46   0.0000       0.011328         0.3082
  47   0.0000       0.051134         1.3914
  48   0.0000       0.051699         1.4068

                 SPIN DOWN ORBITALS
  NO   OCC          E(Eh)            E(eV)
   0   1.0000     -89.102232     -2424.5950
   1   1.0000     -19.169203      -521.6205
   2   1.0000     -19.168748      -521.6082
   3   1.0000     -10.325634      -280.9748
   4   1.0000     -10.310272      -280.5568
   5   1.0000     -10.271225      -279.4942
   6   1.0000     -10.266978      -279.3787
   7   1.0000     -10.265631      -279.3420
   8   1.0000     -10.263875      -279.2942
   9   1.0000     -10.256883      -279.1040
  10   1.0000     -10.254715      -279.0450
  11   1.0000      -8.079318      -219.8494
  12   1.0000      -6.014999      -163.6764
  13   1.0000      -6.011129      -163.5711
  14   1.0000      -6.007753      -163.4793
  15   1.0000      -1.081837       -29.4383
  16   1.0000      -0.990080       -26.9414
  17   1.0000      -0.933551       -25.4032
  18   1.0000      -0.872444       -23.7404
  19   1.0000      -0.808593       -22.0029
  20   1.0000      -0.791427       -21.5358
  21   1.0000      -0.713734       -19.4217
  22   1.0000      -0.658009       -17.9053
  23   1.0000      -0.632666       -17.2157
  24   1.0000      -0.586938       -15.9714
  25   1.0000      -0.524160       -14.2631
  26   1.0000      -0.518674       -14.1138
  27   1.0000      -0.486384       -13.2352
  28   1.0000      -0.479327       -13.0431
  29   1.0000      -0.467259       -12.7148
  30   1.0000      -0.466382       -12.6909
  31   1.0000      -0.452316       -12.3081
  32   1.0000      -0.441607       -12.0167
  33   1.0000      -0.431677       -11.7465
  34   1.0000      -0.415588       -11.3087
  35   1.0000      -0.411792       -11.2054
  36   1.0000      -0.385848       -10.4995
  37   1.0000      -0.368130       -10.0173
  38   1.0000      -0.328910        -8.9501
  39   1.0000      -0.302182        -8.2228
  40   1.0000      -0.291973        -7.9450
  41   1.0000      -0.276389        -7.5209
  42   1.0000      -0.270426        -7.3587
  43   0.0000      -0.183002        -4.9797
  44   0.0000      -0.036816        -1.0018
  45   0.0000      -0.025560        -0.6955
  46   0.0000       0.015031         0.4090
  47   0.0000       0.054875         1.4932

MULLIKEN ATOMIC CHARGES AND SPIN POPULATIONS
--------------------------------------------
   0 C :   -0.413474   -0.019121
   1 S :    0.198260    0.464120
   2 C :    0.195043    0.079040
   3 C :   -0.166819    0.088693
   4 C :   -0.222044   -0.039173
   5 C :    0.205757    0.268146
   6 C :   -0.230452   -0.073817
   7 C :   -0.126646    0.127693
   8 C :    0.300627   -0.029185
   9 O :   -0.558401    0.056112
  10 O :   -0.559326    0.050728
  11 H :    0.214932   -0.000477
  12 H :    0.211179    0.017869
  13 H :    0.211033    0.018212
  14 H :    0.196223   -0.005368
  15 H :    0.178618    0.000984
  16 H :    0.177391    0.002445
  17 H :    0.188100   -0.006902
Sum of atomic charges         :   -0.0000000

LOEWDIN ATOMIC CHARGES AND SPIN POPULATIONS
-------------------------------------------
   0 C :   -0.458660    0.021338
   1 S :    0.856842    0.408920
   2 C :   -0.352798    0.095602
   3 C :   -0.085073    0.079634
   4 C :   -0.063019    0.007439
   5 C :   -0.045925    0.181423
   6 C :   -0.073187   -0.012958
   7 C :   -0.087789    0.097841
   8 C :   -0.649927    0.001658
   9 O :   -0.079628    0.051168
  10 O :   -0.079989    0.046056
  11 H :    0.142792   -0.000366
  12 H :    0.143795    0.011596
  13 H :    0.143608    0.011846
  14 H :    0.173385   -0.000332
  15 H :    0.172436   -0.000100
  16 H :    0.172096   -0.000044
  17 H :    0.171042   -0.000720

  Mayer bond orders larger than 0.100000
B(  0-C ,  1-S ) :   1.0440 B(  0-C , 11-H ) :   0.9234 B(  0-C , 12-H ) :   0.9271
B(  0-C , 13-H ) :   0.9268 B(  1-S ,  2-C ) :   1.3506 B(  2-C ,  3-C ) :   1.1976
B(  2-C ,  7-C ) :   1.1682 B(  3-C ,  4-C ) :   1.5354 B(  3-C , 14-H ) :   0.9474
B(  4-C ,  5-C ) :   1.2517 B(  4-C , 15-H ) :   0.9546 B(  5-C ,  6-C ) :   1.2624
B(  5-C ,  8-C ) :   0.8541 B(  6-C ,  7-C ) :   1.5410 B(  6-C , 16-H ) :   0.9633
B(  7-C , 17-H ) :   0.9575 B(  8-C ,  9-O ) :   1.7805 B(  8-C , 10-O ) :   1.7872

Dispersion correction           -0.018885913
FINAL SINGLE POINT ENERGY      -857.224793374848

DIPOLE MOMENT
-------------
                                X             Y             Z
Electronic contribution:      3.06086      -0.95935      -1.75380
Nuclear contribution   :     -3.03110       8.26977       6.85140
                        -----------------------------------------
Total Dipole Moment    :      0.02976       7.31042       5.09760
                        -----------------------------------------
Magnitude (a.u.)       :      8.91227
Magnitude (Debye)      :     22.65320

Rotational constants in cm-1:     0.103258     0.015406     0.013870
Rotational constants in MHz :  3095.593844   461.860307   415.826057

                             ****ORCA TERMINATED NORMALLY****
TOTAL RUN TIME: 0 days 1 hours 44 minutes 16 seconds 47 msec
