                         Program Version 5.0.3 -  RELEASE  -
|  1> ! UKS wB97X-D3 def2-TZVP TIGHTSCF Opt PAL8
|  2> %maxcore 5000
|  3> * xyz 0 2
|  4>  C -0.07425707479814 6.45007760366319 3.54636897867849
|  5>  S 1.48979584793712 6.08048225687873 2.75598260255209
|  6>  C 1.14936654141856 4.63662227087222 1.83369205968326
|  7>  C -0.09136557109480 4.00305286554088 1.79338352444578
|  8>  C -0.25826928718407 2.84269542505768 1.05936282240646
|  9>  C 0.80050967676942 2.30271389692801 0.33923873907232
| 10>  C 2.02875697338567 2.96040825022008 0.34201900047512
| 11>  C 2.20764771123846 4.10330343094754 1.09121055149825
| 12>  C 0.66254428710301 1.09941809961861 -0.50690159852297
| 13>  O 0.00000000000000 0.00000000000000 0.00000000000000
| 14>  O 1.06713866538631 0.98717129960580 -1.62357736506780
| 15>  H 0.10416325535368 7.34607684664392 4.14087383255362
| 16>  H -0.38882275224257 5.64387294862163 4.21002028523424
| 17>  H -0.85323854703301 6.66443357654391 2.81385647784552
| 18>  H -0.93700004363157 4.40513362395569 2.33421606140266
| 19>  H -1.23507439683237 2.37497021944690 1.02749021968162
| 20>  H 2.84544686618639 2.55882587909200 -0.24576673820719
| 21>  H 3.17295340310622 4.59670965109571 1.10248346369500
| 22> *
| 23>
| 24>                          ****END OF INPUT****
 Total Charge           Charge          ....    0
 Multiplicity           Mult            ....    2
 Number of Electrons    NEL             ....   87
Dispersion correction           -0.005675522
FINAL SINGLE POINT ENERGY      -857.693606596415
Dispersion correction            ... done
Dispersion correction           -0.005662586
FINAL SINGLE POINT ENERGY      -857.697679306648
Dispersion correction            ... done
Dispersion correction           -0.005632920
FINAL SINGLE POINT ENERGY      -857.698651151237
Dispersion correction            ... done
FINAL SINGLE POINT ENERGY      -857.700268663486
FINAL SINGLE POINT ENERGY      -857.701065660026
FINAL SINGLE POINT ENERGY      -857.702432953410
FINAL SINGLE POINT ENERGY      -857.702802184453
FINAL SINGLE POINT ENERGY      -857.703285204887
FINAL SINGLE POINT ENERGY      -857.703408942810
FINAL SINGLE POINT ENERGY      -857.703476970403
FINAL SINGLE POINT ENERGY      -857.703477986254
FINAL SINGLE POINT ENERGY      -857.703393235855
FINAL SINGLE POINT ENERGY      -857.703466965639
Dispersion correction            ... done
Dispersion correction           -0.005574719
FINAL SINGLE POINT ENERGY      -857.703460452142
Dispersion correction            ... done
Dispersion correction           -0.005575032
FINAL SINGLE POINT ENERGY      -857.703453541896
Dispersion correction            ... done
                    ***********************HURRAY********************

CARTESIAN COORDINATES (ANGSTROEM)
---------------------------------
  C     -0.058171    6.433989    3.586375
  S      1.456382    6.134243    2.675777
  C      1.125031    4.664045    1.785428
  C     -0.094640    3.990054    1.800938
  C     -0.252844    2.827503    1.068244
  C      0.798693    2.324965    0.315776
  C      2.017440    2.998579    0.290769
  C      2.179247    4.156548    1.017438
  C      0.632052    1.079249   -0.439213
  O     -0.423980    0.408465   -0.500057
  O      1.530330    0.524414   -1.114559
  H      0.127271    7.333944    4.170679
  H     -0.284595    5.615441    4.268828
  H     -0.900437    6.618919    2.920678
  H     -0.926602    4.361877    2.382274
  H     -1.199405    2.300300    1.082037
  H      2.836120    2.604458   -0.299320
  H      3.128405    4.678975    1.001862

 Multiplicity           Mult            ....    2
 Number of Electrons    NEL             ....   87
 Basis Dimension        Dim             ....  389

ORBITAL ENERGIES
----------------
                 SPIN UP ORBITALS
  NO   OCC          E(Eh)            E(eV)
   0   1.0000     -88.973249     -2421.0852
   1   1.0000     -19.284940      -524.7699
   2   1.0000     -19.284004      -524.7444
   3   1.0000     -10.425610      -283.6953
   4   1.0000     -10.345355      -281.5114
   5   1.0000     -10.323239      -280.9096
   6   1.0000     -10.314034      -280.6591
   7   1.0000     -10.312578      -280.6195
   8   1.0000     -10.311706      -280.5958
   9   1.0000     -10.307119      -280.4710
  10   1.0000     -10.305826      -280.4358
  11   1.0000      -8.070235      -219.6023
  12   1.0000      -6.024249      -163.9281
  13   1.0000      -6.020107      -163.8154
  14   1.0000      -6.015336      -163.6856
  15   1.0000      -1.259296       -34.2672
  16   1.0000      -1.134203       -30.8632
  17   1.0000      -1.018902       -27.7257
  18   1.0000      -0.952198       -25.9106
  19   1.0000      -0.897589       -24.4246
  20   1.0000      -0.890127       -24.2216
  21   1.0000      -0.806249       -21.9391
  22   1.0000      -0.750896       -20.4329
  23   1.0000      -0.732528       -19.9331
  24   1.0000      -0.690934       -18.8013
  25   1.0000      -0.650110       -17.6904
  26   1.0000      -0.608054       -16.5460
  27   1.0000      -0.594837       -16.1864
  28   1.0000      -0.584761       -15.9122
  29   1.0000      -0.576301       -15.6820
  30   1.0000      -0.568975       -15.4826
  31   1.0000      -0.557022       -15.1574
  32   1.0000      -0.552122       -15.0240
  33   1.0000      -0.531848       -14.4723
  34   1.0000      -0.507212       -13.8019
  35   1.0000      -0.491354       -13.3704
  36   1.0000      -0.467495       -12.7212
  37   1.0000      -0.452778       -12.3207
  38   1.0000      -0.436813       -11.8863
  39   1.0000      -0.432586       -11.7713
  40   1.0000      -0.430175       -11.7057
  41   1.0000      -0.410372       -11.1668
  42   1.0000      -0.372451       -10.1349
  43   1.0000      -0.317482        -8.6391
  44   0.0000       0.001169         0.0318
  45   0.0000       0.038433         1.0458
  46   0.0000       0.087105         2.3703
  47   0.0000       0.116259         3.1636
  48   0.0000       0.121702         3.3117

                 SPIN DOWN ORBITALS
  NO   OCC          E(Eh)            E(eV)
   0   1.0000     -88.973256     -2421.0854
   1   1.0000     -19.272740      -524.4379
   2   1.0000     -19.271964      -524.4168
   3   1.0000     -10.426477      -283.7189
   4   1.0000     -10.345405      -281.5128
   5   1.0000     -10.323237      -280.9096
   6   1.0000     -10.314004      -280.6583
   7   1.0000     -10.312553      -280.6188
   8   1.0000     -10.311762      -280.5973
   9   1.0000     -10.307066      -280.4695
  10   1.0000     -10.305773      -280.4343
  11   1.0000      -8.070242      -219.6024
  12   1.0000      -6.024252      -163.9282
  13   1.0000      -6.020110      -163.8155
  14   1.0000      -6.015361      -163.6863
  15   1.0000      -1.230486       -33.4832
  16   1.0000      -1.095726       -29.8162
  17   1.0000      -1.018625       -27.7182
  18   1.0000      -0.951711       -25.8974
  19   1.0000      -0.897287       -24.4164
  20   1.0000      -0.889245       -24.1976
  21   1.0000      -0.804940       -21.9035
  22   1.0000      -0.749866       -20.4049
  23   1.0000      -0.730631       -19.8815
  24   1.0000      -0.688259       -18.7285
  25   1.0000      -0.620422       -16.8825
  26   1.0000      -0.602449       -16.3935
  27   1.0000      -0.580736       -15.8026
  28   1.0000      -0.577564       -15.7163
  29   1.0000      -0.574385       -15.6298
  30   1.0000      -0.556949       -15.1554
  31   1.0000      -0.556398       -15.1404
  32   1.0000      -0.550198       -14.9716
  33   1.0000      -0.525139       -14.2898
  34   1.0000      -0.506157       -13.7732
  35   1.0000      -0.485791       -13.2191
  36   1.0000      -0.465540       -12.6680
  37   1.0000      -0.433864       -11.8060
  38   1.0000      -0.410520       -11.1708
  39   1.0000      -0.409512       -11.1434
  40   1.0000      -0.391855       -10.6629
  41   1.0000      -0.372320       -10.1314
  42   1.0000      -0.316969        -8.6252
  43   0.0000      -0.095488        -2.5984
  44   0.0000       0.003122         0.0849
  45   0.0000       0.038327         1.0429
  46   0.0000       0.087128         2.3709
  47   0.0000       0.116273         3.1639

MULLIKEN ATOMIC CHARGES AND SPIN POPULATIONS
--------------------------------------------
   0 C :   -0.395611    0.000044
   1 S :   -0.004428   -0.001129
   2 C :    0.146389   -0.004407
   3 C :   -0.193288    0.000615
   4 C :   -0.210629    0.003994
   5 C :   -0.015048   -0.005058
   6 C :   -0.193584    0.003796
   7 C :   -0.137575    0.000991
   8 C :    0.445351   -0.097055
   9 O :   -0.248976    0.544162
  10 O :   -0.246075    0.552075
  11 H :    0.164123   -0.000013
  12 H :    0.151481   -0.000046
  13 H :    0.149495   -0.000049
  14 H :    0.141990    0.000025
  15 H :    0.153154    0.001103
  16 H :    0.154356    0.001043
  17 H :    0.138873   -0.000090
Sum of atomic charges         :   -0.0000000

LOEWDIN ATOMIC CHARGES AND SPIN POPULATIONS
-------------------------------------------
   0 C :   -0.508817   -0.000041
   1 S :    0.588252   -0.001259
   2 C :   -0.352777   -0.002579
   3 C :   -0.142981    0.001495
   4 C :   -0.073158    0.000812
   5 C :   -0.147600    0.000016
   6 C :   -0.075492    0.001263
   7 C :   -0.138296    0.001593
   8 C :   -0.517402    0.022616
   9 O :    0.200979    0.483650
  10 O :    0.203507    0.490821
  11 H :    0.120670    0.000005
  12 H :    0.111966   -0.000030
  13 H :    0.110921   -0.000030
  14 H :    0.148778   -0.000040
  15 H :    0.160143    0.000870
  16 H :    0.160458    0.000883
  17 H :    0.150848   -0.000045

  Mayer bond orders larger than 0.100000
B(  0-C ,  1-S ) :   1.0706 B(  0-C , 11-H ) :   0.9550 B(  0-C , 12-H ) :   0.9576
B(  0-C , 13-H ) :   0.9571 B(  1-S ,  2-C ) :   1.2043 B(  2-C ,  3-C ) :   1.2936
B(  2-C ,  7-C ) :   1.3084 B(  3-C ,  4-C ) :   1.4635 B(  3-C , 14-H ) :   0.9607
B(  4-C ,  5-C ) :   1.3906 B(  4-C , 15-H ) :   0.9506 B(  5-C ,  6-C ) :   1.3494
B(  5-C ,  8-C ) :   1.0112 B(  6-C ,  7-C ) :   1.4858 B(  6-C , 16-H ) :   0.9615
B(  7-C , 17-H ) :   0.9744 B(  8-C ,  9-O ) :   1.6210 B(  8-C , 10-O ) :   1.6149
B(  9-O , 10-O ) :   0.4000

Dispersion correction           -0.005574989
FINAL SINGLE POINT ENERGY      -857.703456591648

DIPOLE MOMENT
-------------
                                X             Y             Z
Electronic contribution:      2.75410      -6.62322      -5.83698
Nuclear contribution   :     -3.05090       8.20516       7.04883
                        -----------------------------------------
Total Dipole Moment    :     -0.29681       1.58194       1.21185
                        -----------------------------------------
Magnitude (a.u.)       :      2.01474
Magnitude (Debye)      :      5.12107

Rotational constants in cm-1:     0.107828     0.015115     0.013294
Rotational constants in MHz :  3232.592409   453.144149   398.552524

                             ****ORCA TERMINATED NORMALLY****
TOTAL RUN TIME: 0 days 0 hours 32 minutes 57 seconds 924 msec
