                         Program Version 5.0.3 -  RELEASE  -
|  1> ! UKS wB97X-D3 def2-TZVP TIGHTSCF Opt CPCM PAL8
|  2> %maxcore 5000
|  3> %cpcm
|  4> smd true
|  5> SMDsolvent "N-METHYLFORMAMIDE"
|  6> end
|  7> * xyz 0 2
|  8>  C -0.07425707479814 6.45007760366319 3.54636897867849
|  9>  S 1.48979584793712 6.08048225687873 2.75598260255209
| 10>  C 1.14936654141856 4.63662227087222 1.83369205968326
| 11>  C -0.09136557109480 4.00305286554088 1.79338352444578
| 12>  C -0.25826928718407 2.84269542505768 1.05936282240646
| 13>  C 0.80050967676942 2.30271389692801 0.33923873907232
| 14>  C 2.02875697338567 2.96040825022008 0.34201900047512
| 15>  C 2.20764771123846 4.10330343094754 1.09121055149825
| 16>  C 0.66254428710301 1.09941809961861 -0.50690159852297
| 17>  O 0.00000000000000 0.00000000000000 0.00000000000000
| 18>  O 1.06713866538631 0.98717129960580 -1.62357736506780
| 19>  H 0.10416325535368 7.34607684664392 4.14087383255362
| 20>  H -0.38882275224257 5.64387294862163 4.21002028523424
| 21>  H -0.85323854703301 6.66443357654391 2.81385647784552
| 22>  H -0.93700004363157 4.40513362395569 2.33421606140266
| 23>  H -1.23507439683237 2.37497021944690 1.02749021968162
| 24>  H 2.84544686618639 2.55882587909200 -0.24576673820719
| 25>  H 3.17295340310622 4.59670965109571 1.10248346369500
| 26> *
| 27>
| 28>                          ****END OF INPUT****
 Total Charge           Charge          ....    0
 Multiplicity           Mult            ....    2
 Number of Electrons    NEL             ....   87
Dispersion correction           -0.005675522
FINAL SINGLE POINT ENERGY      -857.704342483790
Dispersion correction            ... done
Dispersion correction           -0.005692003
FINAL SINGLE POINT ENERGY      -857.724683728203
Dispersion correction            ... done
Dispersion correction           -0.005696432
FINAL SINGLE POINT ENERGY      -857.729653275181
Dispersion correction            ... done
FINAL SINGLE POINT ENERGY      -857.729889667188
FINAL SINGLE POINT ENERGY      -857.730556642205
FINAL SINGLE POINT ENERGY      -857.732004170923
FINAL SINGLE POINT ENERGY      -857.732006091057
FINAL SINGLE POINT ENERGY      -857.731995263268
Dispersion correction            ... done
Dispersion correction           -0.005699533
FINAL SINGLE POINT ENERGY      -857.732050444088
Dispersion correction            ... done
Dispersion correction           -0.005699698
FINAL SINGLE POINT ENERGY      -857.732049016839
Dispersion correction            ... done
                    ***********************HURRAY********************

CARTESIAN COORDINATES (ANGSTROEM)
---------------------------------
  C     -0.062183    6.461010    3.549980
  S      1.440658    6.025125    2.700841
  C      1.115002    4.623449    1.823555
  C     -0.142263    3.974664    1.785175
  C     -0.278851    2.832833    1.047231
  C      0.804119    2.314011    0.316586
  C      2.045926    2.964012    0.343649
  C      2.213517    4.096080    1.090401
  C      0.628160    1.045919   -0.497289
  O      0.015846    0.113908    0.062669
  O      1.114334    1.056535   -1.646164
  H      0.176933    7.356424    4.122204
  H     -0.360143    5.661154    4.227158
  H     -0.852102    6.682481    2.833281
  H     -0.985289    4.371888    2.333275
  H     -1.231209    2.318990    1.019468
  H      2.873608    2.560835   -0.225389
  H      3.174232    4.596652    1.127321

 Multiplicity           Mult            ....    2
 Number of Electrons    NEL             ....   87
 Basis Dimension        Dim             ....  389

ORBITAL ENERGIES
----------------
                 SPIN UP ORBITALS
  NO   OCC          E(Eh)            E(eV)
   0   1.0000     -89.038227     -2422.8533
   1   1.0000     -19.189616      -522.1760
   2   1.0000     -19.189370      -522.1693
   3   1.0000     -10.382240      -282.5151
   4   1.0000     -10.368569      -282.1431
   5   1.0000     -10.330846      -281.1166
   6   1.0000     -10.325930      -280.9828
   7   1.0000     -10.322178      -280.8807
   8   1.0000     -10.320928      -280.8467
   9   1.0000     -10.308916      -280.5199
  10   1.0000     -10.306384      -280.4510
  11   1.0000      -8.132895      -221.3073
  12   1.0000      -6.085551      -165.5963
  13   1.0000      -6.084869      -165.5777
  14   1.0000      -6.080378      -165.4555
  15   1.0000      -1.167712       -31.7751
  16   1.0000      -1.075458       -29.2647
  17   1.0000      -1.037039       -28.2193
  18   1.0000      -0.977772       -26.6065
  19   1.0000      -0.905487       -24.6396
  20   1.0000      -0.893965       -24.3260
  21   1.0000      -0.812693       -22.1145
  22   1.0000      -0.752711       -20.4823
  23   1.0000      -0.730186       -19.8694
  24   1.0000      -0.678730       -18.4692
  25   1.0000      -0.616069       -16.7641
  26   1.0000      -0.607475       -16.5302
  27   1.0000      -0.574125       -15.6227
  28   1.0000      -0.569772       -15.5043
  29   1.0000      -0.568619       -15.4729
  30   1.0000      -0.554221       -15.0811
  31   1.0000      -0.541856       -14.7447
  32   1.0000      -0.528995       -14.3947
  33   1.0000      -0.521778       -14.1983
  34   1.0000      -0.510265       -13.8850
  35   1.0000      -0.499230       -13.5847
  36   1.0000      -0.472428       -12.8554
  37   1.0000      -0.454891       -12.3782
  38   1.0000      -0.439692       -11.9646
  39   1.0000      -0.382707       -10.4140
  40   1.0000      -0.371997       -10.1225
  41   1.0000      -0.368417       -10.0251
  42   1.0000      -0.363662        -9.8958
  43   1.0000      -0.336582        -9.1589
  44   0.0000       0.009548         0.2598
  45   0.0000       0.037069         1.0087
  46   0.0000       0.086127         2.3436
  47   0.0000       0.126469         3.4414
  48   0.0000       0.134037         3.6473

                 SPIN DOWN ORBITALS
  NO   OCC          E(Eh)            E(eV)
   0   1.0000     -89.035034     -2422.7664
   1   1.0000     -19.188989      -522.1589
   2   1.0000     -19.188792      -522.1536
   3   1.0000     -10.382495      -282.5220
   4   1.0000     -10.367893      -282.1247
   5   1.0000     -10.327940      -281.0375
   6   1.0000     -10.324300      -280.9385
   7   1.0000     -10.321040      -280.8498
   8   1.0000     -10.320948      -280.8473
   9   1.0000     -10.309666      -280.5403
  10   1.0000     -10.307430      -280.4794
  11   1.0000      -8.130412      -221.2398
  12   1.0000      -6.082893      -165.5239
  13   1.0000      -6.078518      -165.4049
  14   1.0000      -6.076348      -165.3458
  15   1.0000      -1.166423       -31.7400
  16   1.0000      -1.073847       -29.2209
  17   1.0000      -1.029577       -28.0162
  18   1.0000      -0.968438       -26.3525
  19   1.0000      -0.902926       -24.5699
  20   1.0000      -0.884546       -24.0697
  21   1.0000      -0.806565       -21.9477
  22   1.0000      -0.749181       -20.3863
  23   1.0000      -0.722845       -19.6696
  24   1.0000      -0.676069       -18.3968
  25   1.0000      -0.611617       -16.6429
  26   1.0000      -0.605218       -16.4688
  27   1.0000      -0.572048       -15.5662
  28   1.0000      -0.566730       -15.4215
  29   1.0000      -0.555930       -15.1276
  30   1.0000      -0.552837       -15.0435
  31   1.0000      -0.535428       -14.5697
  32   1.0000      -0.527394       -14.3511
  33   1.0000      -0.517790       -14.0898
  34   1.0000      -0.499223       -13.5845
  35   1.0000      -0.495837       -13.4924
  36   1.0000      -0.468750       -12.7553
  37   1.0000      -0.449690       -12.2367
  38   1.0000      -0.401627       -10.9288
  39   1.0000      -0.379144       -10.3170
  40   1.0000      -0.369843       -10.0639
  41   1.0000      -0.358254        -9.7486
  42   1.0000      -0.350036        -9.5250
  43   0.0000      -0.121205        -3.2982
  44   0.0000       0.036099         0.9823
  45   0.0000       0.049117         1.3365
  46   0.0000       0.089679         2.4403
  47   0.0000       0.130907         3.5622

MULLIKEN ATOMIC CHARGES AND SPIN POPULATIONS
--------------------------------------------
   0 C :   -0.423851   -0.017888
   1 S :    0.231710    0.490665
   2 C :    0.176249    0.066339
   3 C :   -0.166832    0.112067
   4 C :   -0.233318   -0.049263
   5 C :    0.182736    0.263078
   6 C :   -0.241584   -0.076348
   7 C :   -0.115793    0.151965
   8 C :    0.369319   -0.017750
   9 O :   -0.609059    0.025969
  10 O :   -0.609877    0.024339
  11 H :    0.216974    0.000528
  12 H :    0.213976    0.017157
  13 H :    0.213921    0.017502
  14 H :    0.214227   -0.004686
  15 H :    0.188936    0.000968
  16 H :    0.188911    0.001716
  17 H :    0.203354   -0.006358
Sum of atomic charges         :    0.0000000

LOEWDIN ATOMIC CHARGES AND SPIN POPULATIONS
-------------------------------------------
   0 C :   -0.450189    0.021261
   1 S :    0.878064    0.437881
   2 C :   -0.349852    0.092176
   3 C :   -0.076497    0.099834
   4 C :   -0.067334   -0.012033
   5 C :   -0.038741    0.197998
   6 C :   -0.077219   -0.029763
   7 C :   -0.078488    0.120858
   8 C :   -0.636406    0.004711
   9 O :   -0.108343    0.023978
  10 O :   -0.108542    0.022297
  11 H :    0.141524   -0.000362
  12 H :    0.142328    0.010996
  13 H :    0.142211    0.011292
  14 H :    0.173439   -0.000225
  15 H :    0.171451   -0.000143
  16 H :    0.171135   -0.000162
  17 H :    0.171458   -0.000593

  Mayer bond orders larger than 0.100000
B(  0-C ,  1-S ) :   1.0362 B(  0-C , 11-H ) :   0.9279 B(  0-C , 12-H ) :   0.9308
B(  0-C , 13-H ) :   0.9303 B(  1-S ,  2-C ) :   1.4090 B(  2-C ,  3-C ) :   1.1740
B(  2-C ,  7-C ) :   1.1532 B(  3-C ,  4-C ) :   1.5756 B(  3-C , 14-H ) :   0.9433
B(  4-C ,  5-C ) :   1.2647 B(  4-C , 15-H ) :   0.9526 B(  5-C ,  6-C ) :   1.2802
B(  5-C ,  8-C ) :   0.8532 B(  6-C ,  7-C ) :   1.5606 B(  6-C , 16-H ) :   0.9611
B(  7-C , 17-H ) :   0.9574 B(  8-C ,  9-O ) :   1.7644 B(  8-C , 10-O ) :   1.7662

Dispersion correction           -0.005699816
FINAL SINGLE POINT ENERGY      -857.732048757338

DIPOLE MOMENT
-------------
                                X             Y             Z
Electronic contribution:      3.08973      -0.54309      -1.51034
Nuclear contribution   :     -3.02051       8.30785       6.90100
                        -----------------------------------------
Total Dipole Moment    :      0.06922       7.76475       5.39066
                        -----------------------------------------
Magnitude (a.u.)       :      9.45280
Magnitude (Debye)      :     24.02711

Rotational constants in cm-1:     0.103434     0.015381     0.013787
Rotational constants in MHz :  3100.860530   461.105293   413.317737

                             ****ORCA TERMINATED NORMALLY****
TOTAL RUN TIME: 0 days 0 hours 20 minutes 4 seconds 158 msec
