                         Program Version 5.0.3 -  RELEASE  -
|  1> ! UKS PBE0 def2-TZVP def2/J RIJCOSX D3BJ TIGHTSCF Opt CPCM PAL8
|  2> %maxcore 5000
|  3> %cpcm
|  4> smd true
|  5> SMDsolvent "DMSO"
|  6> end
|  7> * xyz 0 2
|  8>  C -0.07425707479814 6.45007760366319 3.54636897867849
|  9>  S 1.48979584793712 6.08048225687873 2.75598260255209
| 10>  C 1.14936654141856 4.63662227087222 1.83369205968326
| 11>  C -0.09136557109480 4.00305286554088 1.79338352444578
| 12>  C -0.25826928718407 2.84269542505768 1.05936282240646
| 13>  C 0.80050967676942 2.30271389692801 0.33923873907232
| 14>  C 2.02875697338567 2.96040825022008 0.34201900047512
| 15>  C 2.20764771123846 4.10330343094754 1.09121055149825
| 16>  C 0.66254428710301 1.09941809961861 -0.50690159852297
| 17>  O 0.00000000000000 0.00000000000000 0.00000000000000
| 18>  O 1.06713866538631 0.98717129960580 -1.62357736506780
| 19>  H 0.10416325535368 7.34607684664392 4.14087383255362
| 20>  H -0.38882275224257 5.64387294862163 4.21002028523424
| 21>  H -0.85323854703301 6.66443357654391 2.81385647784552
| 22>  H -0.93700004363157 4.40513362395569 2.33421606140266
| 23>  H -1.23507439683237 2.37497021944690 1.02749021968162
| 24>  H 2.84544686618639 2.55882587909200 -0.24576673820719
| 25>  H 3.17295340310622 4.59670965109571 1.10248346369500
| 26> *
| 27>
| 28>                          ****END OF INPUT****
 Total Charge           Charge          ....    0
 Multiplicity           Mult            ....    2
 Number of Electrons    NEL             ....   87
Dispersion correction           -0.018780886
FINAL SINGLE POINT ENERGY      -857.204139203757
Dispersion correction            ... done
Dispersion correction           -0.018821249
FINAL SINGLE POINT ENERGY      -857.210251152530
Dispersion correction            ... done
Dispersion correction           -0.018886070
FINAL SINGLE POINT ENERGY      -857.211255884294
Dispersion correction            ... done
FINAL SINGLE POINT ENERGY      -857.214517653807
FINAL SINGLE POINT ENERGY      -857.215478369156
FINAL SINGLE POINT ENERGY      -857.217168403010
FINAL SINGLE POINT ENERGY      -857.217471702483
FINAL SINGLE POINT ENERGY      -857.217600828043
FINAL SINGLE POINT ENERGY      -857.217695090488
FINAL SINGLE POINT ENERGY      -857.217778725337
FINAL SINGLE POINT ENERGY      -857.217797059368
FINAL SINGLE POINT ENERGY      -857.217828275972
FINAL SINGLE POINT ENERGY      -857.217912512002
FINAL SINGLE POINT ENERGY      -857.217974027118
FINAL SINGLE POINT ENERGY      -857.218034029906
FINAL SINGLE POINT ENERGY      -857.218063302152
FINAL SINGLE POINT ENERGY      -857.218071216630
Dispersion correction            ... done
Dispersion correction           -0.018885468
FINAL SINGLE POINT ENERGY      -857.218073973472
Dispersion correction            ... done
Dispersion correction           -0.018886621
FINAL SINGLE POINT ENERGY      -857.218075941741
Dispersion correction            ... done
                    ***********************HURRAY********************

CARTESIAN COORDINATES (ANGSTROEM)
---------------------------------
  C     -0.084149    6.457659    3.515612
  S      1.467170    6.015311    2.751285
  C      1.139960    4.600990    1.848756
  C     -0.125784    3.991189    1.767607
  C     -0.282786    2.858855    1.012197
  C      0.799005    2.323173    0.290049
  C      2.072217    2.909766    0.408530
  C      2.240921    4.037158    1.162555
  C      0.603137    1.113046   -0.561658
  O      0.716594    0.102001    0.181395
  O      0.381068    1.161551   -1.764989
  H      0.123146    7.363803    4.086095
  H     -0.421241    5.673935    4.194359
  H     -0.842475    6.672815    2.762532
  H     -0.972719    4.409195    2.294737
  H     -1.253877    2.381102    0.950516
  H      2.914086    2.477718   -0.120080
  H      3.216023    4.506703    1.234457

 Multiplicity           Mult            ....    2
 Number of Electrons    NEL             ....   87
 Basis Dimension        Dim             ....  389

ORBITAL ENERGIES
----------------
                 SPIN UP ORBITALS
  NO   OCC          E(Eh)            E(eV)
   0   1.0000     -89.073327     -2423.8085
   1   1.0000     -19.201793      -522.5073
   2   1.0000     -19.164706      -521.4982
   3   1.0000     -10.321355      -280.8583
   4   1.0000     -10.299075      -280.2521
   5   1.0000     -10.268227      -279.4127
   6   1.0000     -10.255714      -279.0722
   7   1.0000     -10.255695      -279.0717
   8   1.0000     -10.253511      -279.0122
   9   1.0000     -10.252727      -278.9909
  10   1.0000     -10.250562      -278.9320
  11   1.0000      -8.051189      -219.0840
  12   1.0000      -5.986620      -162.9042
  13   1.0000      -5.984043      -162.8341
  14   1.0000      -5.982710      -162.7978
  15   1.0000      -1.093376       -29.7523
  16   1.0000      -1.003268       -27.3003
  17   1.0000      -0.927016       -25.2254
  18   1.0000      -0.864389       -23.5212
  19   1.0000      -0.802474       -21.8364
  20   1.0000      -0.788972       -21.4690
  21   1.0000      -0.706592       -19.2273
  22   1.0000      -0.654526       -17.8106
  23   1.0000      -0.631286       -17.1782
  24   1.0000      -0.584980       -15.9181
  25   1.0000      -0.517435       -14.0801
  26   1.0000      -0.513646       -13.9770
  27   1.0000      -0.488036       -13.2801
  28   1.0000      -0.474374       -12.9084
  29   1.0000      -0.465050       -12.6546
  30   1.0000      -0.460062       -12.5189
  31   1.0000      -0.455791       -12.4027
  32   1.0000      -0.434594       -11.8259
  33   1.0000      -0.425774       -11.5859
  34   1.0000      -0.420558       -11.4440
  35   1.0000      -0.406689       -11.0666
  36   1.0000      -0.378804       -10.3078
  37   1.0000      -0.359815        -9.7911
  38   1.0000      -0.348315        -9.4781
  39   1.0000      -0.304978        -8.2989
  40   1.0000      -0.301798        -8.2124
  41   1.0000      -0.292112        -7.9488
  42   1.0000      -0.274041        -7.4570
  43   1.0000      -0.248017        -6.7489
  44   0.0000      -0.039139        -1.0650
  45   0.0000      -0.028942        -0.7875
  46   0.0000       0.020411         0.5554
  47   0.0000       0.049107         1.3363
  48   0.0000       0.057853         1.5743

                 SPIN DOWN ORBITALS
  NO   OCC          E(Eh)            E(eV)
   0   1.0000     -89.071480     -2423.7582
   1   1.0000     -19.191552      -522.2287
   2   1.0000     -19.163888      -521.4759
   3   1.0000     -10.321708      -280.8679
   4   1.0000     -10.296898      -280.1928
   5   1.0000     -10.265091      -279.3273
   6   1.0000     -10.255836      -279.0755
   7   1.0000     -10.255065      -279.0545
   8   1.0000     -10.253035      -278.9993
   9   1.0000     -10.252314      -278.9796
  10   1.0000     -10.250418      -278.9281
  11   1.0000      -8.049464      -219.0371
  12   1.0000      -5.985546      -162.8750
  13   1.0000      -5.981758      -162.7719
  14   1.0000      -5.977993      -162.6695
  15   1.0000      -1.082542       -29.4575
  16   1.0000      -0.991141       -26.9703
  17   1.0000      -0.921669       -25.0799
  18   1.0000      -0.857794       -23.3418
  19   1.0000      -0.800944       -21.7948
  20   1.0000      -0.782169       -21.2839
  21   1.0000      -0.703460       -19.1421
  22   1.0000      -0.651213       -17.7204
  23   1.0000      -0.625225       -17.0132
  24   1.0000      -0.581012       -15.8101
  25   1.0000      -0.512554       -13.9473
  26   1.0000      -0.512003       -13.9323
  27   1.0000      -0.481620       -13.1055
  28   1.0000      -0.470500       -12.8030
  29   1.0000      -0.458823       -12.4852
  30   1.0000      -0.457933       -12.4610
  31   1.0000      -0.447269       -12.1708
  32   1.0000      -0.431992       -11.7551
  33   1.0000      -0.422582       -11.4990
  34   1.0000      -0.409601       -11.1458
  35   1.0000      -0.403857       -10.9895
  36   1.0000      -0.376434       -10.2433
  37   1.0000      -0.356009        -9.6875
  38   1.0000      -0.324436        -8.8283
  39   1.0000      -0.298113        -8.1121
  40   1.0000      -0.287102        -7.8124
  41   1.0000      -0.266105        -7.2411
  42   1.0000      -0.246622        -6.7109
  43   0.0000      -0.169433        -4.6105
  44   0.0000      -0.022041        -0.5998
  45   0.0000      -0.018129        -0.4933
  46   0.0000       0.022694         0.6175
  47   0.0000       0.050730         1.3804

MULLIKEN ATOMIC CHARGES AND SPIN POPULATIONS
--------------------------------------------
   0 C :   -0.416441   -0.011556
   1 S :    0.085554    0.272280
   2 C :    0.184798    0.123272
   3 C :   -0.197056    0.006830
   4 C :   -0.213076    0.044967
   5 C :    0.163720    0.163679
   6 C :   -0.215571    0.008457
   7 C :   -0.159304    0.033746
   8 C :    0.253717   -0.038006
   9 O :   -0.367028    0.353325
  10 O :   -0.434081    0.029675
  11 H :    0.203743   -0.000340
  12 H :    0.195328    0.010435
  13 H :    0.194906    0.010190
  14 H :    0.186210   -0.001435
  15 H :    0.179628   -0.002341
  16 H :    0.178641   -0.000710
  17 H :    0.176309   -0.002469
Sum of atomic charges         :   -0.0000000

LOEWDIN ATOMIC CHARGES AND SPIN POPULATIONS
-------------------------------------------
   0 C :   -0.478734    0.012357
   1 S :    0.736094    0.245709
   2 C :   -0.359404    0.101610
   3 C :   -0.110809    0.030069
   4 C :   -0.068224    0.047448
   5 C :   -0.057458    0.133987
   6 C :   -0.077673    0.026163
   7 C :   -0.113439    0.040626
   8 C :   -0.643231    0.004620
   9 O :    0.076450    0.319609
  10 O :    0.013980    0.025436
  11 H :    0.136823   -0.000258
  12 H :    0.133476    0.006520
  13 H :    0.133483    0.006605
  14 H :    0.168911   -0.000092
  15 H :    0.171749   -0.000114
  16 H :    0.171462   -0.000046
  17 H :    0.166544   -0.000250

  Mayer bond orders larger than 0.100000
B(  0-C ,  1-S ) :   1.0478 B(  0-C , 11-H ) :   0.9298 B(  0-C , 12-H ) :   0.9380
B(  0-C , 13-H ) :   0.9368 B(  1-S ,  2-C ) :   1.3016 B(  2-C ,  3-C ) :   1.2154
B(  2-C ,  7-C ) :   1.1885 B(  3-C ,  4-C ) :   1.5215 B(  3-C , 14-H ) :   0.9513
B(  4-C ,  5-C ) :   1.2551 B(  4-C , 15-H ) :   0.9625 B(  5-C ,  6-C ) :   1.2483
B(  5-C ,  8-C ) :   0.8669 B(  5-C ,  9-O ) :   0.1013 B(  6-C ,  7-C ) :   1.5500
B(  6-C , 16-H ) :   0.9702 B(  7-C , 17-H ) :   0.9629 B(  8-C ,  9-O ) :   1.6165
B(  8-C , 10-O ) :   1.9763

Dispersion correction           -0.018887149
FINAL SINGLE POINT ENERGY      -857.218077062559

DIPOLE MOMENT
-------------
                                X             Y             Z
Electronic contribution:      2.90331      -3.45745      -3.21484
Nuclear contribution   :     -3.08289       8.21611       6.81227
                        -----------------------------------------
Total Dipole Moment    :     -0.17958       4.75866       3.59743
                        -----------------------------------------
Magnitude (a.u.)       :      5.96813
Magnitude (Debye)      :     15.16978

Rotational constants in cm-1:     0.103162     0.015168     0.014133
Rotational constants in MHz :  3092.721444   454.720314   423.693762

                             ****ORCA TERMINATED NORMALLY****
TOTAL RUN TIME: 0 days 2 hours 43 minutes 21 seconds 67 msec
