                         Program Version 5.0.3 -  RELEASE  -
|  1> ! UKS wB97X-D3 def2-TZVP TIGHTSCF Opt PAL8
|  2> %maxcore 5000
|  3> * xyz 0 1
|  4>  C -0.07425707479814 6.45007760366319 3.54636897867849
|  5>  S 1.48979584793712 6.08048225687873 2.75598260255209
|  6>  C 1.14936654141856 4.63662227087222 1.83369205968326
|  7>  C -0.09136557109480 4.00305286554088 1.79338352444578
|  8>  C -0.25826928718407 2.84269542505768 1.05936282240646
|  9>  C 0.80050967676942 2.30271389692801 0.33923873907232
| 10>  C 2.02875697338567 2.96040825022008 0.34201900047512
| 11>  C 2.20764771123846 4.10330343094754 1.09121055149825
| 12>  C 0.66254428710301 1.09941809961861 -0.50690159852297
| 13>  O 0.00000000000000 0.00000000000000 0.00000000000000
| 14>  O 1.06713866538631 0.98717129960580 -1.62357736506780
| 15>  O 0.00000000000000 0.00000000000000 1.41527284498687
| 16>  C -1.27388770944479 0.00000000000000 1.91590645535523
| 17>  C -1.22211457253867 0.06642777988277 3.38831477989974
| 18>  O -2.25742922897412 -0.02585779042736 1.23875652957256
| 19>  C -2.41543940252313 -0.12289611375011 4.08595252694906
| 20>  C -2.44195923478874 -0.03437680070658 5.45887710053507
| 21>  C -1.27275068522395 0.25496212808386 6.17298493884884
| 22>  C -0.08177795586127 0.45060655108151 5.47518008098465
| 23>  C -0.05890441770979 0.35440376081578 4.09544628781756
| 24>  S -1.42666733932306 0.34986111841343 7.90788531117200
| 25>  C 0.24316058065577 0.68495422113854 8.46194522255982
| 26>  H 0.10416325535368 7.34607684664392 4.14087383255362
| 27>  H -0.38882275224257 5.64387294862163 4.21002028523424
| 28>  H -0.85323854703301 6.66443357654391 2.81385647784552
| 29>  H -0.93700004363157 4.40513362395569 2.33421606140266
| 30>  H -1.23507439683237 2.37497021944690 1.02749021968162
| 31>  H 2.84544686618639 2.55882587909200 -0.24576673820719
| 32>  H 3.17295340310622 4.59670965109571 1.10248346369500
| 33>  H -3.31769085302541 -0.33900022625314 3.52707230389961
| 34>  H -3.37188538809726 -0.18808364875198 5.99464715790180
| 35>  H 0.83479761044422 0.68252071425859 5.99988733430662
| 36>  H 0.87046926144621 0.51883617942438 3.56602510045047
| 37>  H 0.18454114424639 0.73729393679500 9.54909076814075
| 38>  H 0.60864534290486 1.64029462399245 8.08374213903351
| 39>  H 0.92507514742305 -0.11949528816653 8.18458994466104
| 40> *
| 41>
| 42>                          ****END OF INPUT****
 Total Charge           Charge          ....    0
 Multiplicity           Mult            ....    1
 Number of Electrons    NEL             ....  174
Dispersion correction           -0.016304727
FINAL SINGLE POINT ENERGY     -1715.451640214395
Dispersion correction            ... done
Dispersion correction           -0.016173121
FINAL SINGLE POINT ENERGY     -1715.451350848149
Dispersion correction            ... done
Dispersion correction           -0.016530369
FINAL SINGLE POINT ENERGY     -1715.451690552753
Dispersion correction            ... done
FINAL SINGLE POINT ENERGY     -1715.451460717254
FINAL SINGLE POINT ENERGY     -1715.451816750618
FINAL SINGLE POINT ENERGY     -1715.451728044421
FINAL SINGLE POINT ENERGY     -1715.451797667128
FINAL SINGLE POINT ENERGY     -1715.451800929098
FINAL SINGLE POINT ENERGY     -1715.451783503770
FINAL SINGLE POINT ENERGY     -1715.451815761382
Dispersion correction            ... done
Dispersion correction           -0.017244297
FINAL SINGLE POINT ENERGY     -1715.451808285289
Dispersion correction            ... done
Dispersion correction           -0.017239148
FINAL SINGLE POINT ENERGY     -1715.451812074450
Dispersion correction            ... done
                    ***********************HURRAY********************

CARTESIAN COORDINATES (ANGSTROEM)
---------------------------------
  C     -0.049297    6.138971    3.903655
  S      1.519107    5.785864    3.110101
  C      1.147288    4.440767    2.045571
  C     -0.126430    3.909847    1.862121
  C     -0.315729    2.824369    1.024377
  C      0.756228    2.261751    0.347045
  C      2.022545    2.817711    0.492655
  C      2.219325    3.886250    1.343009
  C      0.588329    1.119449   -0.590121
  O     -0.071321   -0.009400   -0.138746
  O      0.964288    1.087521   -1.718548
  O     -0.057906   -0.078642    1.270113
  C     -1.323588   -0.042205    1.796185
  C     -1.235025    0.062260    3.271740
  O     -2.319468   -0.064204    1.141403
  C     -2.373015   -0.231989    4.019990
  C     -2.361011   -0.086673    5.389082
  C     -1.213260    0.373428    6.043575
  C     -0.078425    0.669489    5.293891
  C     -0.090351    0.510690    3.918733
  S     -1.325713    0.546120    7.783427
  C      0.292676    1.153636    8.256707
  H      0.156358    6.935805    4.616864
  H     -0.427476    5.272317    4.445622
  H     -0.793313    6.493211    3.191067
  H     -0.983726    4.330011    2.368961
  H     -1.314800    2.425836    0.891129
  H      2.856022    2.398126   -0.056915
  H      3.213056    4.300653    1.466515
  H     -3.265809   -0.570699    3.509582
  H     -3.247947   -0.322171    5.965491
  H      0.822977    1.032453    5.767507
  H      0.793610    0.760680    3.346848
  H      0.252047    1.278472    9.337755
  H      0.508578    2.119688    7.801498
  H      1.077650    0.437027    8.017640

 Multiplicity           Mult            ....    1
 Number of Electrons    NEL             ....  174
 Basis Dimension        Dim             ....  778

ORBITAL ENERGIES
----------------
                 SPIN UP ORBITALS
  NO   OCC          E(Eh)            E(eV)
   0   1.0000     -88.971541     -2421.0387
   1   1.0000     -88.968637     -2420.9597
   2   1.0000     -19.347344      -526.4680
   3   1.0000     -19.343671      -526.3680
   4   1.0000     -19.238231      -523.4989
   5   1.0000     -19.237921      -523.4904
   6   1.0000     -10.428585      -283.7762
   7   1.0000     -10.427444      -283.7452
   8   1.0000     -10.342009      -281.4204
   9   1.0000     -10.338020      -281.3118
  10   1.0000     -10.322394      -280.8866
  11   1.0000     -10.320152      -280.8256
  12   1.0000     -10.312813      -280.6259
  13   1.0000     -10.312271      -280.6112
  14   1.0000     -10.310272      -280.5568
  15   1.0000     -10.308142      -280.4988
  16   1.0000     -10.307349      -280.4772
  17   1.0000     -10.306993      -280.4675
  18   1.0000     -10.303827      -280.3814
  19   1.0000     -10.302907      -280.3563
  20   1.0000     -10.302705      -280.3509
  21   1.0000     -10.301785      -280.3258
  22   1.0000      -8.068522      -219.5556
  23   1.0000      -8.065596      -219.4760
  24   1.0000      -6.022543      -163.8817
  25   1.0000      -6.019645      -163.8029
  26   1.0000      -6.018406      -163.7692
  27   1.0000      -6.015529      -163.6909
  28   1.0000      -6.013613      -163.6387
  29   1.0000      -6.010621      -163.5573
  30   1.0000      -1.324028       -36.0286
  31   1.0000      -1.211142       -32.9568
  32   1.0000      -1.180573       -32.1250
  33   1.0000      -1.080736       -29.4083
  34   1.0000      -1.015058       -27.6211
  35   1.0000      -1.013850       -27.5883
  36   1.0000      -0.949181       -25.8285
  37   1.0000      -0.947073       -25.7712
  38   1.0000      -0.895066       -24.3560
  39   1.0000      -0.892569       -24.2880
  40   1.0000      -0.887672       -24.1548
  41   1.0000      -0.885334       -24.0912
  42   1.0000      -0.812745       -22.1159
  43   1.0000      -0.800487       -21.7824
  44   1.0000      -0.763291       -20.7702
  45   1.0000      -0.748294       -20.3621
  46   1.0000      -0.747271       -20.3343
  47   1.0000      -0.729029       -19.8379
  48   1.0000      -0.709044       -19.2941
  49   1.0000      -0.690007       -18.7760
  50   1.0000      -0.668205       -18.1828
  51   1.0000      -0.656952       -17.8766
  52   1.0000      -0.617939       -16.8150
  53   1.0000      -0.604958       -16.4617
  54   1.0000      -0.596309       -16.2264
  55   1.0000      -0.595057       -16.1923
  56   1.0000      -0.583888       -15.8884
  57   1.0000      -0.572604       -15.5813
  58   1.0000      -0.570092       -15.5130
  59   1.0000      -0.568704       -15.4752
  60   1.0000      -0.561551       -15.2806
  61   1.0000      -0.556161       -15.1339
  62   1.0000      -0.553673       -15.0662
  63   1.0000      -0.547599       -14.9009
  64   1.0000      -0.542983       -14.7753
  65   1.0000      -0.535890       -14.5823
  66   1.0000      -0.530704       -14.4412
  67   1.0000      -0.523074       -14.2336
  68   1.0000      -0.510671       -13.8961
  69   1.0000      -0.504183       -13.7195
  70   1.0000      -0.499663       -13.5965
  71   1.0000      -0.483467       -13.1558
  72   1.0000      -0.476685       -12.9713
  73   1.0000      -0.463109       -12.6018
  74   1.0000      -0.462274       -12.5791
  75   1.0000      -0.450806       -12.2671
  76   1.0000      -0.432215       -11.7612
  77   1.0000      -0.430440       -11.7129
  78   1.0000      -0.419160       -11.4059
  79   1.0000      -0.410529       -11.1711
  80   1.0000      -0.407819       -11.0973
  81   1.0000      -0.395758       -10.7691
  82   1.0000      -0.387621       -10.5477
  83   1.0000      -0.370794       -10.0898
  84   1.0000      -0.365159        -9.9365
  85   1.0000      -0.314688        -8.5631
  86   1.0000      -0.311636        -8.4800
  87   0.0000       0.003161         0.0860
  88   0.0000       0.020809         0.5662
  89   0.0000       0.040187         1.0935
  90   0.0000       0.043336         1.1792
  91   0.0000       0.079664         2.1678

                 SPIN DOWN ORBITALS
  NO   OCC          E(Eh)            E(eV)
   0   1.0000     -88.971541     -2421.0387
   1   1.0000     -88.968637     -2420.9597
   2   1.0000     -19.347344      -526.4680
   3   1.0000     -19.343671      -526.3680
   4   1.0000     -19.238231      -523.4989
   5   1.0000     -19.237921      -523.4904
   6   1.0000     -10.428585      -283.7762
   7   1.0000     -10.427444      -283.7452
   8   1.0000     -10.342009      -281.4204
   9   1.0000     -10.338020      -281.3118
  10   1.0000     -10.322394      -280.8866
  11   1.0000     -10.320152      -280.8256
  12   1.0000     -10.312813      -280.6259
  13   1.0000     -10.312271      -280.6112
  14   1.0000     -10.310272      -280.5568
  15   1.0000     -10.308142      -280.4988
  16   1.0000     -10.307349      -280.4772
  17   1.0000     -10.306993      -280.4675
  18   1.0000     -10.303827      -280.3814
  19   1.0000     -10.302907      -280.3563
  20   1.0000     -10.302705      -280.3509
  21   1.0000     -10.301785      -280.3258
  22   1.0000      -8.068522      -219.5556
  23   1.0000      -8.065596      -219.4760
  24   1.0000      -6.022543      -163.8817
  25   1.0000      -6.019645      -163.8029
  26   1.0000      -6.018406      -163.7692
  27   1.0000      -6.015529      -163.6909
  28   1.0000      -6.013613      -163.6387
  29   1.0000      -6.010621      -163.5573
  30   1.0000      -1.324028       -36.0286
  31   1.0000      -1.211142       -32.9568
  32   1.0000      -1.180573       -32.1250
  33   1.0000      -1.080736       -29.4083
  34   1.0000      -1.015058       -27.6211
  35   1.0000      -1.013850       -27.5883
  36   1.0000      -0.949181       -25.8285
  37   1.0000      -0.947073       -25.7712
  38   1.0000      -0.895066       -24.3560
  39   1.0000      -0.892569       -24.2880
  40   1.0000      -0.887672       -24.1548
  41   1.0000      -0.885334       -24.0912
  42   1.0000      -0.812745       -22.1159
  43   1.0000      -0.800487       -21.7824
  44   1.0000      -0.763291       -20.7702
  45   1.0000      -0.748294       -20.3621
  46   1.0000      -0.747271       -20.3343
  47   1.0000      -0.729029       -19.8379
  48   1.0000      -0.709044       -19.2941
  49   1.0000      -0.690007       -18.7760
  50   1.0000      -0.668205       -18.1828
  51   1.0000      -0.656952       -17.8766
  52   1.0000      -0.617939       -16.8150
  53   1.0000      -0.604958       -16.4617
  54   1.0000      -0.596309       -16.2264
  55   1.0000      -0.595057       -16.1923
  56   1.0000      -0.583888       -15.8884
  57   1.0000      -0.572604       -15.5813
  58   1.0000      -0.570092       -15.5130
  59   1.0000      -0.568704       -15.4752
  60   1.0000      -0.561551       -15.2806
  61   1.0000      -0.556161       -15.1339
  62   1.0000      -0.553673       -15.0662
  63   1.0000      -0.547599       -14.9009
  64   1.0000      -0.542983       -14.7753
  65   1.0000      -0.535890       -14.5823
  66   1.0000      -0.530704       -14.4412
  67   1.0000      -0.523074       -14.2336
  68   1.0000      -0.510671       -13.8961
  69   1.0000      -0.504183       -13.7195
  70   1.0000      -0.499663       -13.5965
  71   1.0000      -0.483467       -13.1558
  72   1.0000      -0.476685       -12.9713
  73   1.0000      -0.463109       -12.6018
  74   1.0000      -0.462274       -12.5791
  75   1.0000      -0.450806       -12.2671
  76   1.0000      -0.432215       -11.7612
  77   1.0000      -0.430440       -11.7129
  78   1.0000      -0.419160       -11.4059
  79   1.0000      -0.410529       -11.1711
  80   1.0000      -0.407819       -11.0973
  81   1.0000      -0.395758       -10.7691
  82   1.0000      -0.387621       -10.5477
  83   1.0000      -0.370794       -10.0898
  84   1.0000      -0.365159        -9.9365
  85   1.0000      -0.314688        -8.5631
  86   1.0000      -0.311636        -8.4800
  87   0.0000       0.003161         0.0860
  88   0.0000       0.020809         0.5662
  89   0.0000       0.040187         1.0935
  90   0.0000       0.043336         1.1792
  91   0.0000       0.079664         2.1678

MULLIKEN ATOMIC CHARGES AND SPIN POPULATIONS
--------------------------------------------
   0 C :   -0.394420    0.000000
   1 S :   -0.015649    0.000000
   2 C :    0.150072   -0.000000
   3 C :   -0.205565    0.000000
   4 C :   -0.245574   -0.000000
   5 C :    0.068553    0.000000
   6 C :   -0.209437   -0.000000
   7 C :   -0.152975    0.000000
   8 C :    0.325857    0.000000
   9 O :   -0.091539    0.000000
  10 O :   -0.274448   -0.000000
  11 O :   -0.130001    0.000000
  12 C :    0.321457   -0.000000
  13 C :    0.064173   -0.000000
  14 O :   -0.294966    0.000000
  15 C :   -0.203317    0.000000
  16 C :   -0.141956   -0.000000
  17 C :    0.162106    0.000000
  18 C :   -0.218943   -0.000000
  19 C :   -0.235117    0.000000
  20 S :   -0.008457   -0.000000
  21 C :   -0.392075    0.000000
  22 H :    0.161974    0.000000
  23 H :    0.149597   -0.000000
  24 H :    0.149459   -0.000000
  25 H :    0.139839   -0.000000
  26 H :    0.180362   -0.000000
  27 H :    0.146737   -0.000000
  28 H :    0.136348   -0.000000
  29 H :    0.156387    0.000000
  30 H :    0.136907   -0.000000
  31 H :    0.139432    0.000000
  32 H :    0.164855    0.000000
  33 H :    0.163831    0.000000
  34 H :    0.146193    0.000000
  35 H :    0.150300    0.000000
Sum of atomic charges         :    0.0000000

LOEWDIN ATOMIC CHARGES AND SPIN POPULATIONS
-------------------------------------------
   0 C :   -0.510867    0.000000
   1 S :    0.575727   -0.000000
   2 C :   -0.360060    0.000000
   3 C :   -0.143702    0.000000
   4 C :   -0.092126   -0.000000
   5 C :   -0.144852    0.000000
   6 C :   -0.084844   -0.000000
   7 C :   -0.140147    0.000000
   8 C :   -0.429703   -0.000000
   9 O :    0.216529   -0.000000
  10 O :    0.169113    0.000000
  11 O :    0.205739    0.000000
  12 C :   -0.461178   -0.000000
  13 C :   -0.142225    0.000000
  14 O :    0.146485    0.000000
  15 C :   -0.074908    0.000000
  16 C :   -0.140103   -0.000000
  17 C :   -0.356138    0.000000
  18 C :   -0.146625   -0.000000
  19 C :   -0.085212    0.000000
  20 S :    0.583442    0.000000
  21 C :   -0.509953   -0.000000
  22 H :    0.119500   -0.000000
  23 H :    0.111227   -0.000000
  24 H :    0.110524    0.000000
  25 H :    0.149947   -0.000000
  26 H :    0.162320    0.000000
  27 H :    0.159600    0.000000
  28 H :    0.150163   -0.000000
  29 H :    0.161940    0.000000
  30 H :    0.150385   -0.000000
  31 H :    0.148767   -0.000000
  32 H :    0.159206    0.000000
  33 H :    0.120228    0.000000
  34 H :    0.110363    0.000000
  35 H :    0.111437    0.000000

  Mayer bond orders larger than 0.100000
B(  0-C ,  1-S ) :   1.0738 B(  0-C , 22-H ) :   0.9553 B(  0-C , 23-H ) :   0.9581
B(  0-C , 24-H ) :   0.9576 B(  1-S ,  2-C ) :   1.1882 B(  2-C ,  3-C ) :   1.2867
B(  2-C ,  7-C ) :   1.3220 B(  3-C ,  4-C ) :   1.4663 B(  3-C , 25-H ) :   0.9643
B(  4-C ,  5-C ) :   1.3546 B(  4-C , 26-H ) :   0.9277 B(  5-C ,  6-C ) :   1.3770
B(  5-C ,  8-C ) :   0.9616 B(  6-C ,  7-C ) :   1.4672 B(  6-C , 27-H ) :   0.9760
B(  7-C , 28-H ) :   0.9758 B(  8-C ,  9-O ) :   1.0844 B(  8-C , 10-O ) :   2.1345
B(  9-O , 11-O ) :   0.8197 B( 11-O , 12-C ) :   1.0893 B( 12-C , 13-C ) :   0.9620
B( 12-C , 14-O ) :   2.0755 B( 13-C , 15-C ) :   1.3595 B( 13-C , 19-C ) :   1.3826
B( 15-C , 16-C ) :   1.4833 B( 15-C , 29-H ) :   0.9632 B( 16-C , 17-C ) :   1.3026
B( 16-C , 30-H ) :   0.9777 B( 17-C , 18-C ) :   1.2924 B( 17-C , 20-S ) :   1.2008
B( 18-C , 19-C ) :   1.4753 B( 18-C , 31-H ) :   0.9588 B( 19-C , 32-H ) :   0.9548
B( 20-S , 21-C ) :   1.0736 B( 21-C , 33-H ) :   0.9548 B( 21-C , 34-H ) :   0.9583
B( 21-C , 35-H ) :   0.9579

Dispersion correction           -0.017229855
FINAL SINGLE POINT ENERGY     -1715.451818253734

DIPOLE MOMENT
-------------
                                X             Y             Z
Electronic contribution:     -0.95865      -9.18419     -14.61516
Nuclear contribution   :      1.35433      10.35507      17.29838
                        -----------------------------------------
Total Dipole Moment    :      0.39568       1.17088       2.68322
                        -----------------------------------------
Magnitude (a.u.)       :      2.95419
Magnitude (Debye)      :      7.50894

Rotational constants in cm-1:     0.008993     0.005628     0.003839
Rotational constants in MHz :   269.598814   168.730122   115.099509

                             ****ORCA TERMINATED NORMALLY****
TOTAL RUN TIME: 0 days 2 hours 35 minutes 7 seconds 492 msec
