                         Program Version 5.0.3 -  RELEASE  -
|  1> ! UKS wB97X-V def2-TZVP TIGHTSCF Opt CPCM PAL8
|  2> %maxcore 5000
|  3> %cpcm
|  4> smd true
|  5> SMDsolvent "N-METHYLFORMAMIDE"
|  6> end
|  7> * xyz 0 2
|  8>  C -0.07425707479814 6.45007760366319 3.54636897867849
|  9>  S 1.48979584793712 6.08048225687873 2.75598260255209
| 10>  C 1.14936654141856 4.63662227087222 1.83369205968326
| 11>  C -0.09136557109480 4.00305286554088 1.79338352444578
| 12>  C -0.25826928718407 2.84269542505768 1.05936282240646
| 13>  C 0.80050967676942 2.30271389692801 0.33923873907232
| 14>  C 2.02875697338567 2.96040825022008 0.34201900047512
| 15>  C 2.20764771123846 4.10330343094754 1.09121055149825
| 16>  C 0.66254428710301 1.09941809961861 -0.50690159852297
| 17>  O 0.00000000000000 0.00000000000000 0.00000000000000
| 18>  O 1.06713866538631 0.98717129960580 -1.62357736506780
| 19>  H 0.10416325535368 7.34607684664392 4.14087383255362
| 20>  H -0.38882275224257 5.64387294862163 4.21002028523424
| 21>  H -0.85323854703301 6.66443357654391 2.81385647784552
| 22>  H -0.93700004363157 4.40513362395569 2.33421606140266
| 23>  H -1.23507439683237 2.37497021944690 1.02749021968162
| 24>  H 2.84544686618639 2.55882587909200 -0.24576673820719
| 25>  H 3.17295340310622 4.59670965109571 1.10248346369500
| 26> *
| 27>
| 28>                          ****END OF INPUT****
 Total Charge           Charge          ....    0
 Multiplicity           Mult            ....    2
 Number of Electrons    NEL             ....   87
FINAL SINGLE POINT ENERGY      -857.640930031874
FINAL SINGLE POINT ENERGY      -857.661446414833
FINAL SINGLE POINT ENERGY      -857.666472529615
FINAL SINGLE POINT ENERGY      -857.666650555353
FINAL SINGLE POINT ENERGY      -857.667661023338
FINAL SINGLE POINT ENERGY      -857.668750965613
FINAL SINGLE POINT ENERGY      -857.668770961860
FINAL SINGLE POINT ENERGY      -857.668738846283
FINAL SINGLE POINT ENERGY      -857.668803478412
FINAL SINGLE POINT ENERGY      -857.668804268577
                    ***********************HURRAY********************

CARTESIAN COORDINATES (ANGSTROEM)
---------------------------------
  C     -0.067116    6.466659    3.542625
  S      1.445928    6.025774    2.706607
  C      1.121225    4.619951    1.833679
  C     -0.138401    3.967240    1.803886
  C     -0.277533    2.824630    1.061452
  C      0.804264    2.312951    0.318405
  C      2.048976    2.963930    0.339522
  C      2.220227    4.095072    1.092676
  C      0.623495    1.049254   -0.507566
  O     -0.022934    0.124175    0.032848
  O      1.139923    1.056955   -1.647098
  H      0.166255    7.370164    4.108670
  H     -0.368160    5.669832    4.225255
  H     -0.852729    6.679055    2.815432
  H     -0.978199    4.362284    2.362357
  H     -1.229783    2.306020    1.037195
  H      2.873190    2.562747   -0.239773
  H      3.181668    4.599276    1.127780

 Multiplicity           Mult            ....    2
 Number of Electrons    NEL             ....   87
 Basis Dimension        Dim             ....  389

ORBITAL ENERGIES
----------------
                 SPIN UP ORBITALS
  NO   OCC          E(Eh)            E(eV)
   0   1.0000     -88.948551     -2420.4131
   1   1.0000     -19.169444      -521.6271
   2   1.0000     -19.169230      -521.6213
   3   1.0000     -10.373989      -282.2906
   4   1.0000     -10.361400      -281.9480
   5   1.0000     -10.323515      -280.9171
   6   1.0000     -10.319230      -280.8005
   7   1.0000     -10.315438      -280.6973
   8   1.0000     -10.314011      -280.6585
   9   1.0000     -10.301464      -280.3171
  10   1.0000     -10.298908      -280.2475
  11   1.0000      -8.124844      -221.0883
  12   1.0000      -6.079668      -165.4362
  13   1.0000      -6.078931      -165.4161
  14   1.0000      -6.074316      -165.2906
  15   1.0000      -1.179108       -32.0852
  16   1.0000      -1.086330       -29.5605
  17   1.0000      -1.052720       -28.6460
  18   1.0000      -0.992645       -27.0112
  19   1.0000      -0.920069       -25.0364
  20   1.0000      -0.907835       -24.7034
  21   1.0000      -0.825952       -22.4753
  22   1.0000      -0.765309       -20.8251
  23   1.0000      -0.741987       -20.1905
  24   1.0000      -0.690041       -18.7770
  25   1.0000      -0.626439       -17.0463
  26   1.0000      -0.616836       -16.7850
  27   1.0000      -0.584088       -15.8938
  28   1.0000      -0.580475       -15.7955
  29   1.0000      -0.578862       -15.7516
  30   1.0000      -0.564018       -15.3477
  31   1.0000      -0.551242       -15.0001
  32   1.0000      -0.537932       -14.6379
  33   1.0000      -0.531129       -14.4528
  34   1.0000      -0.519262       -14.1298
  35   1.0000      -0.507204       -13.8017
  36   1.0000      -0.481150       -13.0928
  37   1.0000      -0.463039       -12.5999
  38   1.0000      -0.447281       -12.1711
  39   1.0000      -0.388434       -10.5698
  40   1.0000      -0.378687       -10.3046
  41   1.0000      -0.375307       -10.2126
  42   1.0000      -0.371343       -10.1048
  43   1.0000      -0.342919        -9.3313
  44   0.0000       0.014485         0.3942
  45   0.0000       0.042527         1.1572
  46   0.0000       0.089953         2.4478
  47   0.0000       0.128028         3.4838
  48   0.0000       0.142859         3.8874

                 SPIN DOWN ORBITALS
  NO   OCC          E(Eh)            E(eV)
   0   1.0000     -88.945507     -2420.3303
   1   1.0000     -19.168856      -521.6111
   2   1.0000     -19.168683      -521.6064
   3   1.0000     -10.374242      -282.2975
   4   1.0000     -10.360593      -281.9261
   5   1.0000     -10.320100      -280.8242
   6   1.0000     -10.317295      -280.7479
   7   1.0000     -10.314120      -280.6615
   8   1.0000     -10.313961      -280.6572
   9   1.0000     -10.302309      -280.3401
  10   1.0000     -10.300076      -280.2793
  11   1.0000      -8.122232      -221.0172
  12   1.0000      -6.076934      -165.3618
  13   1.0000      -6.072462      -165.2401
  14   1.0000      -6.070295      -165.1811
  15   1.0000      -1.177965       -32.0541
  16   1.0000      -1.084910       -29.5219
  17   1.0000      -1.045914       -28.4608
  18   1.0000      -0.983946       -26.7745
  19   1.0000      -0.917790       -24.9743
  20   1.0000      -0.898798       -24.4575
  21   1.0000      -0.820053       -22.3148
  22   1.0000      -0.762116       -20.7382
  23   1.0000      -0.734839       -19.9960
  24   1.0000      -0.687651       -18.7119
  25   1.0000      -0.622249       -16.9323
  26   1.0000      -0.614876       -16.7316
  27   1.0000      -0.582240       -15.8436
  28   1.0000      -0.577130       -15.7045
  29   1.0000      -0.566122       -15.4050
  30   1.0000      -0.562741       -15.3130
  31   1.0000      -0.544223       -14.8091
  32   1.0000      -0.536471       -14.5981
  33   1.0000      -0.527297       -14.3485
  34   1.0000      -0.507577       -13.8119
  35   1.0000      -0.504129       -13.7181
  36   1.0000      -0.477776       -13.0010
  37   1.0000      -0.458092       -12.4653
  38   1.0000      -0.407369       -11.0851
  39   1.0000      -0.385398       -10.4872
  40   1.0000      -0.376602       -10.2479
  41   1.0000      -0.366171        -9.9640
  42   1.0000      -0.358380        -9.7520
  43   0.0000      -0.117176        -3.1885
  44   0.0000       0.041303         1.1239
  45   0.0000       0.055303         1.5049
  46   0.0000       0.093029         2.5314
  47   0.0000       0.130556         3.5526

MULLIKEN ATOMIC CHARGES AND SPIN POPULATIONS
--------------------------------------------
   0 C :   -0.409988   -0.016683
   1 S :    0.246233    0.488576
   2 C :    0.161841    0.063070
   3 C :   -0.157958    0.122412
   4 C :   -0.226773   -0.065358
   5 C :    0.207526    0.282653
   6 C :   -0.237952   -0.093102
   7 C :   -0.111777    0.162745
   8 C :    0.288004   -0.018082
   9 O :   -0.580900    0.023862
  10 O :   -0.581445    0.022587
  11 H :    0.211239    0.000069
  12 H :    0.207857    0.017250
  13 H :    0.207931    0.017489
  14 H :    0.207694   -0.004745
  15 H :    0.185161    0.001311
  16 H :    0.184558    0.002056
  17 H :    0.198750   -0.006110
Sum of atomic charges         :   -0.0000000

LOEWDIN ATOMIC CHARGES AND SPIN POPULATIONS
-------------------------------------------
   0 C :   -0.444958    0.021590
   1 S :    0.880285    0.438474
   2 C :   -0.348753    0.091067
   3 C :   -0.073865    0.102761
   4 C :   -0.066583   -0.014325
   5 C :   -0.036264    0.198590
   6 C :   -0.076371   -0.031369
   7 C :   -0.075756    0.123415
   8 C :   -0.633385    0.005690
   9 O :   -0.111290    0.022205
  10 O :   -0.111362    0.020844
  11 H :    0.139427   -0.000366
  12 H :    0.140232    0.011045
  13 H :    0.140177    0.011225
  14 H :    0.171575   -0.000049
  15 H :    0.168953   -0.000192
  16 H :    0.168644   -0.000229
  17 H :    0.169295   -0.000377

  Mayer bond orders larger than 0.100000
B(  0-C ,  1-S ) :   1.0343 B(  0-C , 11-H ) :   0.9323 B(  0-C , 12-H ) :   0.9343
B(  0-C , 13-H ) :   0.9343 B(  1-S ,  2-C ) :   1.4260 B(  2-C ,  3-C ) :   1.1847
B(  2-C ,  7-C ) :   1.1586 B(  3-C ,  4-C ) :   1.5628 B(  3-C , 14-H ) :   0.9469
B(  4-C ,  5-C ) :   1.2691 B(  4-C , 15-H ) :   0.9499 B(  5-C ,  6-C ) :   1.2840
B(  5-C ,  8-C ) :   0.8416 B(  6-C ,  7-C ) :   1.5589 B(  6-C , 16-H ) :   0.9579
B(  7-C , 17-H ) :   0.9550 B(  8-C ,  9-O ) :   1.8190 B(  8-C , 10-O ) :   1.8200

FINAL SINGLE POINT ENERGY      -857.668804845279

DIPOLE MOMENT
-------------
                                X             Y             Z
Electronic contribution:      3.12023      -0.52933      -1.46146
Nuclear contribution   :     -3.02813       8.30711       6.90011
                        -----------------------------------------
Total Dipole Moment    :      0.09209       7.77778       5.43865
                        -----------------------------------------
Magnitude (a.u.)       :      9.49112
Magnitude (Debye)      :     24.12450

Rotational constants in cm-1:     0.102801     0.015365     0.013737
Rotational constants in MHz :  3081.908727   460.633855   411.834629

                             ****ORCA TERMINATED NORMALLY****
TOTAL RUN TIME: 0 days 0 hours 24 minutes 17 seconds 197 msec
