                         Program Version 5.0.3 -  RELEASE  -
|  1> ! UKS wB97X-D3 def2-TZVP TIGHTSCF Opt CPCM PAL8
|  2> %maxcore 5000
|  3> %cpcm
|  4> smd true
|  5> SMDsolvent "DMSO"
|  6> end
|  7> * xyz 0 2
|  8>  C -0.07425707479814 6.45007760366319 3.54636897867849
|  9>  S 1.48979584793712 6.08048225687873 2.75598260255209
| 10>  C 1.14936654141856 4.63662227087222 1.83369205968326
| 11>  C -0.09136557109480 4.00305286554088 1.79338352444578
| 12>  C -0.25826928718407 2.84269542505768 1.05936282240646
| 13>  C 0.80050967676942 2.30271389692801 0.33923873907232
| 14>  C 2.02875697338567 2.96040825022008 0.34201900047512
| 15>  C 2.20764771123846 4.10330343094754 1.09121055149825
| 16>  C 0.66254428710301 1.09941809961861 -0.50690159852297
| 17>  O 0.00000000000000 0.00000000000000 0.00000000000000
| 18>  O 1.06713866538631 0.98717129960580 -1.62357736506780
| 19>  H 0.10416325535368 7.34607684664392 4.14087383255362
| 20>  H -0.38882275224257 5.64387294862163 4.21002028523424
| 21>  H -0.85323854703301 6.66443357654391 2.81385647784552
| 22>  H -0.93700004363157 4.40513362395569 2.33421606140266
| 23>  H -1.23507439683237 2.37497021944690 1.02749021968162
| 24>  H 2.84544686618639 2.55882587909200 -0.24576673820719
| 25>  H 3.17295340310622 4.59670965109571 1.10248346369500
| 26> *
| 27>
| 28>                          ****END OF INPUT****
 Total Charge           Charge          ....    0
 Multiplicity           Mult            ....    2
 Number of Electrons    NEL             ....   87
Dispersion correction           -0.005675522
FINAL SINGLE POINT ENERGY      -857.709434857166
Dispersion correction            ... done
Dispersion correction           -0.005669023
FINAL SINGLE POINT ENERGY      -857.713670043346
Dispersion correction            ... done
Dispersion correction           -0.005642814
FINAL SINGLE POINT ENERGY      -857.714050670178
Dispersion correction            ... done
FINAL SINGLE POINT ENERGY      -857.715968548838
FINAL SINGLE POINT ENERGY      -857.716307737547
FINAL SINGLE POINT ENERGY      -857.717539011682
FINAL SINGLE POINT ENERGY      -857.718035823297
FINAL SINGLE POINT ENERGY      -857.718664915762
FINAL SINGLE POINT ENERGY      -857.719005044000
FINAL SINGLE POINT ENERGY      -857.719079735346
FINAL SINGLE POINT ENERGY      -857.719113150014
FINAL SINGLE POINT ENERGY      -857.719134646643
FINAL SINGLE POINT ENERGY      -857.719124825375
Dispersion correction            ... done
Dispersion correction           -0.005580692
FINAL SINGLE POINT ENERGY      -857.719130650475
Dispersion correction            ... done
Dispersion correction           -0.005580608
FINAL SINGLE POINT ENERGY      -857.719127284444
Dispersion correction            ... done
                    ***********************HURRAY********************

CARTESIAN COORDINATES (ANGSTROEM)
---------------------------------
  C     -0.066480    6.436436    3.579843
  S      1.457692    6.124028    2.689347
  C      1.133403    4.657141    1.791336
  C     -0.089494    3.986661    1.810159
  C     -0.251505    2.827045    1.075279
  C      0.799718    2.324928    0.317386
  C      2.021947    2.995942    0.290339
  C      2.187238    4.151343    1.019828
  C      0.630288    1.089959   -0.439550
  O     -0.416288    0.399969   -0.499337
  O      1.509987    0.531478   -1.138698
  H      0.116426    7.340490    4.160617
  H     -0.304500    5.624102    4.265677
  H     -0.898887    6.620733    2.901877
  H     -0.919732    4.357934    2.394795
  H     -1.203469    2.309532    1.096773
  H      2.844174    2.609941   -0.300633
  H      3.139778    4.668305    0.998916

 Multiplicity           Mult            ....    2
 Number of Electrons    NEL             ....   87
 Basis Dimension        Dim             ....  389

ORBITAL ENERGIES
----------------
                 SPIN UP ORBITALS
  NO   OCC          E(Eh)            E(eV)
   0   1.0000     -88.959774     -2420.7185
   1   1.0000     -19.287406      -524.8370
   2   1.0000     -19.287337      -524.8351
   3   1.0000     -10.427240      -283.7396
   4   1.0000     -10.333647      -281.1928
   5   1.0000     -10.303538      -280.3735
   6   1.0000     -10.302135      -280.3354
   7   1.0000     -10.301226      -280.3106
   8   1.0000     -10.296613      -280.1851
   9   1.0000     -10.292285      -280.0673
  10   1.0000     -10.291518      -280.0464
  11   1.0000      -8.056772      -219.2359
  12   1.0000      -6.010659      -163.5584
  13   1.0000      -6.006550      -163.4465
  14   1.0000      -6.002163      -163.3271
  15   1.0000      -1.263948       -34.3938
  16   1.0000      -1.134418       -30.8691
  17   1.0000      -1.007265       -27.4091
  18   1.0000      -0.938856       -25.5476
  19   1.0000      -0.884598       -24.0711
  20   1.0000      -0.875595       -23.8261
  21   1.0000      -0.791488       -21.5375
  22   1.0000      -0.737808       -20.0768
  23   1.0000      -0.719766       -19.5858
  24   1.0000      -0.680103       -18.5066
  25   1.0000      -0.651246       -17.7213
  26   1.0000      -0.603289       -16.4163
  27   1.0000      -0.587189       -15.9782
  28   1.0000      -0.580589       -15.7986
  29   1.0000      -0.564287       -15.3550
  30   1.0000      -0.559647       -15.2288
  31   1.0000      -0.537275       -14.6200
  32   1.0000      -0.532398       -14.4873
  33   1.0000      -0.511435       -13.9169
  34   1.0000      -0.495678       -13.4881
  35   1.0000      -0.476902       -12.9772
  36   1.0000      -0.457120       -12.4389
  37   1.0000      -0.448097       -12.1933
  38   1.0000      -0.436829       -11.8867
  39   1.0000      -0.434172       -11.8144
  40   1.0000      -0.417900       -11.3716
  41   1.0000      -0.399965       -10.8836
  42   1.0000      -0.361054        -9.8248
  43   1.0000      -0.306040        -8.3278
  44   0.0000       0.005851         0.1592
  45   0.0000       0.050645         1.3781
  46   0.0000       0.107024         2.9123
  47   0.0000       0.126716         3.4481
  48   0.0000       0.137859         3.7513

                 SPIN DOWN ORBITALS
  NO   OCC          E(Eh)            E(eV)
   0   1.0000     -88.959783     -2420.7188
   1   1.0000     -19.275227      -524.5056
   2   1.0000     -19.275172      -524.5041
   3   1.0000     -10.428080      -283.7625
   4   1.0000     -10.333699      -281.1942
   5   1.0000     -10.303594      -280.3750
   6   1.0000     -10.302112      -280.3347
   7   1.0000     -10.301195      -280.3098
   8   1.0000     -10.296611      -280.1850
   9   1.0000     -10.292233      -280.0659
  10   1.0000     -10.291466      -280.0450
  11   1.0000      -8.056779      -219.2361
  12   1.0000      -6.010664      -163.5585
  13   1.0000      -6.006554      -163.4466
  14   1.0000      -6.002191      -163.3279
  15   1.0000      -1.234945       -33.6046
  16   1.0000      -1.095785       -29.8178
  17   1.0000      -1.006970       -27.4010
  18   1.0000      -0.938285       -25.5320
  19   1.0000      -0.884319       -24.0636
  20   1.0000      -0.874620       -23.7996
  21   1.0000      -0.789987       -21.4966
  22   1.0000      -0.736689       -20.0463
  23   1.0000      -0.717605       -19.5270
  24   1.0000      -0.677014       -18.4225
  25   1.0000      -0.617209       -16.7951
  26   1.0000      -0.594647       -16.1812
  27   1.0000      -0.579517       -15.7695
  28   1.0000      -0.569732       -15.5032
  29   1.0000      -0.556814       -15.1517
  30   1.0000      -0.554615       -15.0918
  31   1.0000      -0.535699       -14.5771
  32   1.0000      -0.532344       -14.4858
  33   1.0000      -0.503455       -13.6997
  34   1.0000      -0.494813       -13.4645
  35   1.0000      -0.469611       -12.7788
  36   1.0000      -0.451120       -12.2756
  37   1.0000      -0.418347       -11.3838
  38   1.0000      -0.414465       -11.2782
  39   1.0000      -0.399159       -10.8617
  40   1.0000      -0.397739       -10.8230
  41   1.0000      -0.360997        -9.8232
  42   1.0000      -0.305549        -8.3144
  43   0.0000      -0.095490        -2.5984
  44   0.0000       0.007897         0.2149
  45   0.0000       0.050522         1.3748
  46   0.0000       0.107047         2.9129
  47   0.0000       0.128139         3.4868

MULLIKEN ATOMIC CHARGES AND SPIN POPULATIONS
--------------------------------------------
   0 C :   -0.422442    0.000069
   1 S :   -0.037557   -0.001306
   2 C :    0.136354   -0.004620
   3 C :   -0.232518    0.000632
   4 C :   -0.233409    0.002561
   5 C :    0.027012   -0.002602
   6 C :   -0.225535    0.002376
   7 C :   -0.180850    0.001021
   8 C :    0.450126   -0.098546
   9 O :   -0.270816    0.549338
  10 O :   -0.270917    0.548707
  11 H :    0.189872   -0.000010
  12 H :    0.173947   -0.000053
  13 H :    0.173485   -0.000054
  14 H :    0.190627    0.000032
  15 H :    0.178023    0.001264
  16 H :    0.179629    0.001260
  17 H :    0.174969   -0.000069
Sum of atomic charges         :   -0.0000000

LOEWDIN ATOMIC CHARGES AND SPIN POPULATIONS
-------------------------------------------
   0 C :   -0.501496   -0.000043
   1 S :    0.568917   -0.001436
   2 C :   -0.356854   -0.002764
   3 C :   -0.137227    0.001542
   4 C :   -0.071653    0.000577
   5 C :   -0.156570    0.000004
   6 C :   -0.076614    0.001012
   7 C :   -0.141322    0.001627
   8 C :   -0.514988    0.021929
   9 O :    0.182058    0.488279
  10 O :    0.182289    0.487658
  11 H :    0.127733    0.000006
  12 H :    0.119617   -0.000032
  13 H :    0.119180   -0.000033
  14 H :    0.162407   -0.000036
  15 H :    0.167304    0.000868
  16 H :    0.167223    0.000882
  17 H :    0.159995   -0.000040

  Mayer bond orders larger than 0.100000
B(  0-C ,  1-S ) :   1.0589 B(  0-C , 11-H ) :   0.9426 B(  0-C , 12-H ) :   0.9539
B(  0-C , 13-H ) :   0.9535 B(  1-S ,  2-C ) :   1.2120 B(  2-C ,  3-C ) :   1.2836
B(  2-C ,  7-C ) :   1.2705 B(  3-C ,  4-C ) :   1.4787 B(  3-C , 14-H ) :   0.9614
B(  4-C ,  5-C ) :   1.3277 B(  4-C , 15-H ) :   0.9609 B(  5-C ,  6-C ) :   1.2958
B(  5-C ,  8-C ) :   1.0236 B(  6-C ,  7-C ) :   1.5064 B(  6-C , 16-H ) :   0.9702
B(  7-C , 17-H ) :   0.9767 B(  8-C ,  9-O ) :   1.6163 B(  8-C , 10-O ) :   1.6172
B(  9-O , 10-O ) :   0.3919

Dispersion correction           -0.005580511
FINAL SINGLE POINT ENERGY      -857.719129132957

DIPOLE MOMENT
-------------
                                X             Y             Z
Electronic contribution:      2.56202      -6.27596      -5.47517
Nuclear contribution   :     -3.05972       8.23717       7.02872
                        -----------------------------------------
Total Dipole Moment    :     -0.49771       1.96121       1.55355
                        -----------------------------------------
Magnitude (a.u.)       :      2.55099
Magnitude (Debye)      :      6.48411

Rotational constants in cm-1:     0.107904     0.015109     0.013289
Rotational constants in MHz :  3234.871201   452.950912   398.381381

                             ****ORCA TERMINATED NORMALLY****
TOTAL RUN TIME: 0 days 0 hours 36 minutes 47 seconds 452 msec
